 Entering Gaussian System, Link 0=g16
 Input=calc.com
 Output=calc.log
 Initial command:
 /binaries/g16/l1.exe "/calcus/scratch/scr/136/Gau-42253.inp" -scrdir="/calcus/scratch/scr/136/"
 Entering Link 1 = /binaries/g16/l1.exe PID=     42255.
  
 Copyright (c) 1988-2019, Gaussian, Inc.  All Rights Reserved.
  
 This is part of the Gaussian(R) 16 program.  It is based on
 the Gaussian(R) 09 system (copyright 2009, Gaussian, Inc.),
 the Gaussian(R) 03 system (copyright 2003, Gaussian, Inc.),
 the Gaussian(R) 98 system (copyright 1998, Gaussian, Inc.),
 the Gaussian(R) 94 system (copyright 1995, Gaussian, Inc.),
 the Gaussian 92(TM) system (copyright 1992, Gaussian, Inc.),
 the Gaussian 90(TM) system (copyright 1990, Gaussian, Inc.),
 the Gaussian 88(TM) system (copyright 1988, Gaussian, Inc.),
 the Gaussian 86(TM) system (copyright 1986, Carnegie Mellon
 University), and the Gaussian 82(TM) system (copyright 1983,
 Carnegie Mellon University). Gaussian is a federally registered
 trademark of Gaussian, Inc.
  
 This software contains proprietary and confidential information,
 including trade secrets, belonging to Gaussian, Inc.
  
 This software is provided under written license and may be
 used, copied, transmitted, or stored only in accord with that
 written license.
  
 The following legend is applicable only to US Government
 contracts under FAR:
  
                    RESTRICTED RIGHTS LEGEND
  
 Use, reproduction and disclosure by the US Government is
 subject to restrictions as set forth in subparagraphs (a)
 and (c) of the Commercial Computer Software - Restricted
 Rights clause in FAR 52.227-19.
  
 Gaussian, Inc.
 340 Quinnipiac St., Bldg. 40, Wallingford CT 06492
  
  
 ---------------------------------------------------------------
 Warning -- This program may not be used in any manner that
 competes with the business of Gaussian, Inc. or will provide
 assistance to any competitor of Gaussian, Inc.  The licensee
 of this program is prohibited from giving any competitor of
 Gaussian, Inc. access to this program.  By using this program,
 the user acknowledges that Gaussian, Inc. is engaged in the
 business of creating and licensing software in the field of
 computational chemistry and represents and warrants to the
 licensee that it is not a competitor of Gaussian, Inc. and that
 it will not use this program in any manner prohibited above.
 ---------------------------------------------------------------
  

 Cite this work as:
 Gaussian 16, Revision C.01,
 M. J. Frisch, G. W. Trucks, H. B. Schlegel, G. E. Scuseria, 
 M. A. Robb, J. R. Cheeseman, G. Scalmani, V. Barone, 
 G. A. Petersson, H. Nakatsuji, X. Li, M. Caricato, A. V. Marenich, 
 J. Bloino, B. G. Janesko, R. Gomperts, B. Mennucci, H. P. Hratchian, 
 J. V. Ortiz, A. F. Izmaylov, J. L. Sonnenberg, D. Williams-Young, 
 F. Ding, F. Lipparini, F. Egidi, J. Goings, B. Peng, A. Petrone, 
 T. Henderson, D. Ranasinghe, V. G. Zakrzewski, J. Gao, N. Rega, 
 G. Zheng, W. Liang, M. Hada, M. Ehara, K. Toyota, R. Fukuda, 
 J. Hasegawa, M. Ishida, T. Nakajima, Y. Honda, O. Kitao, H. Nakai, 
 T. Vreven, K. Throssell, J. A. Montgomery, Jr., J. E. Peralta, 
 F. Ogliaro, M. J. Bearpark, J. J. Heyd, E. N. Brothers, K. N. Kudin, 
 V. N. Staroverov, T. A. Keith, R. Kobayashi, J. Normand, 
 K. Raghavachari, A. P. Rendell, J. C. Burant, S. S. Iyengar, 
 J. Tomasi, M. Cossi, J. M. Millam, M. Klene, C. Adamo, R. Cammi, 
 J. W. Ochterski, R. L. Martin, K. Morokuma, O. Farkas, 
 J. B. Foresman, and D. J. Fox, Gaussian, Inc., Wallingford CT, 2019.
 
 ******************************************
 Gaussian 16:  ES64L-G16RevC.01  3-Jul-2019
                29-May-2022 
 ******************************************
 %chk=in.chk
 %nproc=4
 Will use up to    4 processors via shared memory.
 %mem=2000MB
 ------------------------
 #p opt(modredundant) AM1
 ------------------------
 1/18=120,19=15,26=1,38=1/1,3;
 2/9=110,12=2,17=6,18=5,40=1/2;
 3/5=2,25=1,41=700000,71=1/1,2,3;
 4/35=1/1;
 5/5=2,35=1,38=5/2;
 6/7=2,8=2,9=2,10=2,28=1/1;
 7//1,2,3,16;
 1/18=20,19=15,26=1/3(2);
 2/9=110/2;
 99//99;
 2/9=110/2;
 3/5=2,25=1,41=700000,71=1,135=20/1,2,3;
 4/5=5,16=3,35=1/1;
 5/5=2,35=1,38=5/2;
 7//1,2,3,16;
 1/18=20,19=15,26=1/3(-5);
 2/9=110/2;
 6/7=2,8=2,9=2,10=2,19=2,28=1/1;
 99/9=1/99;
 Leave Link    1 at Sun May 29 14:24:31 2022, MaxMem=   262144000 cpu:               0.1 elap:               0.0
 (Enter /binaries/g16/l101.exe)
 -----------------------
 File created by ccinput
 -----------------------
 Symbolic Z-matrix:
 Charge =  0 Multiplicity = 1
 C                     4.2918    3.6588    0. 
 H                     4.6485    2.65      0. 
 H                     4.6485    4.1632    0.8707 
 H                     4.6485    4.1632   -0.8797 
 H                     3.2218    3.6588    0. 
 
 The following ModRedundant input section has been read:
 B       1       2 S  10 0.3900                                                
 
 ITRead=  0  0  0  0  0
 MicOpt= -1 -1 -1 -1 -1
 NAtoms=      5 NQM=        5 NQMF=       0 NMMI=      0 NMMIF=      0
                NMic=       0 NMicF=      0.
                    Isotopes and Nuclear Properties:
 (Nuclear quadrupole moments (NQMom) in fm**2, nuclear magnetic moments (NMagM)
  in nuclear magnetons)

  Atom         1           2           3           4           5
 IAtWgt=          12           1           1           1           1
 AtmWgt=  12.0000000   1.0078250   1.0078250   1.0078250   1.0078250
 NucSpn=           0           1           1           1           1
 AtZEff=  -0.0000000  -0.0000000  -0.0000000  -0.0000000  -0.0000000
 NQMom=    0.0000000   0.0000000   0.0000000   0.0000000   0.0000000
 NMagM=    0.0000000   2.7928460   2.7928460   2.7928460   2.7928460
 AtZNuc=   6.0000000   1.0000000   1.0000000   1.0000000   1.0000000
 Leave Link  101 at Sun May 29 14:24:31 2022, MaxMem=   262144000 cpu:               0.6 elap:               0.2
 (Enter /binaries/g16/l103.exe)

 GradGradGradGradGradGradGradGradGradGradGradGradGradGradGradGradGradGrad
 Berny optimization.
 Initialization pass.
                           ----------------------------
                           !    Initial Parameters    !
                           ! (Angstroms and Degrees)  !
 --------------------------                            --------------------------
 ! Name  Definition              Value          Derivative Info.                !
 --------------------------------------------------------------------------------
 ! R1    R(1,2)                  1.07           Scan                            !
 ! R2    R(1,3)                  1.0676         estimate D2E/DX2                !
 ! R3    R(1,4)                  1.075          estimate D2E/DX2                !
 ! R4    R(1,5)                  1.07           estimate D2E/DX2                !
 ! A1    A(2,1,3)              109.5151         estimate D2E/DX2                !
 ! A2    A(2,1,4)              109.3762         estimate D2E/DX2                !
 ! A3    A(2,1,5)              109.473          estimate D2E/DX2                !
 ! A4    A(3,1,4)              109.5644         estimate D2E/DX2                !
 ! A5    A(3,1,5)              109.5186         estimate D2E/DX2                !
 ! A6    A(4,1,5)              109.3798         estimate D2E/DX2                !
 ! D1    D(2,1,4,3)           -120.0525         estimate D2E/DX2                !
 ! D2    D(2,1,5,3)            120.0839         estimate D2E/DX2                !
 ! D3    D(2,1,5,4)           -119.829          estimate D2E/DX2                !
 ! D4    D(3,1,5,4)            120.0871         estimate D2E/DX2                !
 --------------------------------------------------------------------------------
 Trust Radius=3.00D-01 FncErr=1.00D-07 GrdErr=1.00D-07 EigMax=2.50D+02 EigMin=1.00D-04
 Number of optimizations in scan=  11
 Number of steps in this run=     24 maximum allowed number of steps=    100.
 GradGradGradGradGradGradGradGradGradGradGradGradGradGradGradGradGradGrad

 Leave Link  103 at Sun May 29 14:24:31 2022, MaxMem=   262144000 cpu:               0.0 elap:               0.0
 (Enter /binaries/g16/l202.exe)
                          Input orientation:                          
 ---------------------------------------------------------------------
 Center     Atomic      Atomic             Coordinates (Angstroms)
 Number     Number       Type             X           Y           Z
 ---------------------------------------------------------------------
      1          6           0        4.291800    3.658800    0.000000
      2          1           0        4.648500    2.650000    0.000000
      3          1           0        4.648500    4.163200    0.870700
      4          1           0        4.648500    4.163200   -0.879700
      5          1           0        3.221800    3.658800    0.000000
 ---------------------------------------------------------------------
                    Distance matrix (angstroms):
                    1          2          3          4          5
     1  C    0.000000
     2  H    1.070006   0.000000
     3  H    1.067601   1.745822   0.000000
     4  H    1.074954   1.750327   1.750400   0.000000
     5  H    1.070000   1.747327   1.745855   1.750361   0.000000
 Stoichiometry    CH4
 Framework group  C1[X(CH4)]
 Deg. of freedom     9
 Full point group                 C1      NOp   1
 Largest Abelian subgroup         C1      NOp   1
 Largest concise Abelian subgroup C1      NOp   1
                         Standard orientation:                         
 ---------------------------------------------------------------------
 Center     Atomic      Atomic             Coordinates (Angstroms)
 Number     Number       Type             X           Y           Z
 ---------------------------------------------------------------------
      1          6           0       -0.000767    0.000001    0.000472
      2          1           0       -0.325680   -0.869163   -0.532348
      3          1           0       -0.412253   -0.010991    0.985525
      4          1           0        1.072605    0.002075    0.058743
      5          1           0       -0.330072    0.878070   -0.514750
 ---------------------------------------------------------------------
 Rotational constants (GHZ):         164.4303219         163.9529333         163.7655362
 Leave Link  202 at Sun May 29 14:24:31 2022, MaxMem=   262144000 cpu:               0.0 elap:               0.0
 (Enter /binaries/g16/l301.exe)
 Standard basis: VSTO-6G (5D, 7F)
 Ernie: Thresh=  0.10000D-02 Tol=  0.10000D-05 Strict=F.
  NNHCO=     0 NNPyr=     0 NCTC=     0               EPep=         0.000000000
    EC=         6.919995759  ECS=         0.582582337   EG=         0.068208026
   EHC=         0.000000000  EAt=        -6.115142680  AtH=         0.604449838
 EPDDG=         0.000000000  ECC=         7.570786122 EAtT=         6.719592518
 There are     8 symmetry adapted cartesian basis functions of A   symmetry.
 There are     8 symmetry adapted basis functions of A   symmetry.
     8 basis functions,    48 primitive gaussians,     8 cartesian basis functions
     4 alpha electrons        4 beta electrons
       nuclear repulsion energy        14.2903786404 Hartrees.
 IExCor=    0 DFT=F Ex=HF Corr=None ExCW=0 ScaHFX=  1.000000
 ScaDFX=  1.000000  1.000000  1.000000  1.000000 ScalE2=  1.000000  1.000000
 IRadAn=      5 IRanWt=     -1 IRanGd=            0 ICorTp=0 IEmpDi=  4
 Integral buffers will be    131072 words long.
 Regular integral format.
 Two-electron integral symmetry is turned off.
 Leave Link  301 at Sun May 29 14:24:31 2022, MaxMem=   262144000 cpu:               0.1 elap:               0.0
 (Enter /binaries/g16/l302.exe)
 Do NDO integrals.
 NPDir=0 NMtPBC=     1 NCelOv=     1 NCel=       1 NClECP=     1 NCelD=      1
         NCelK=      1 NCelE2=     1 NClLst=     1 CellRange=     0.0.
 One-electron integrals computed using PRISM.
 NBasis=     8 RedAO= F EigKep=  0.00D+00  NBF=     8
 NBsUse=     8 1.00D-04 EigRej=  0.00D+00 NBFU=     8
 Leave Link  302 at Sun May 29 14:24:32 2022, MaxMem=   262144000 cpu:               0.2 elap:               0.0
 (Enter /binaries/g16/l303.exe)
 DipDrv:  MaxL=1.
 Leave Link  303 at Sun May 29 14:24:32 2022, MaxMem=   262144000 cpu:               0.1 elap:               0.0
 (Enter /binaries/g16/l401.exe)
 Simple Huckel Guess.
 JPrj=0 DoOrth=F DoCkMO=F.
 Leave Link  401 at Sun May 29 14:24:32 2022, MaxMem=   262144000 cpu:               0.1 elap:               0.0
 (Enter /binaries/g16/l502.exe)
 Keep J ints in memory in canonical form, NReq=859348.
 FoFCou: FMM=F IPFlag=           0 FMFlag=           0 FMFlg1=           0
         NFxFlg=           0 DoJE=F BraDBF=F KetDBF=F FulRan=T
         wScrn=  0.000000 ICntrl=       600 IOpCl=  2 I1Cent=           0 NGrid=           0
         NMat0=    1 NMatS0=     14 NMatT0=    0 NMatD0=    1 NMtDS0=    0 NMtDT0=    0
 Symmetry not used in FoFCou.
 Two-electron integral symmetry not used.
 Closed shell SCF:
 Using DIIS extrapolation, IDIIS=  1040.
 Overlap will be assumed to be unity.
 NGot=   262144000 LenX=   262083483 LenY=   262082601
 Requested convergence on RMS density matrix=1.00D-08 within 128 cycles.
 Requested convergence on MAX density matrix=1.00D-06.
 Requested convergence on             energy=1.00D-06.
 No special actions if energy rises.

 Cycle   1  Pass 1  IDiag  1:
 E= 0.452729332967827E-01
 DIIS: error= 4.04D-02 at cycle   1 NSaved=   1.
 NSaved= 1 IEnMin= 1 EnMin= 0.452729332967827E-01 IErMin= 1 ErrMin= 4.04D-02
 ErrMax= 4.04D-02  0.00D+00 EMaxC= 1.00D-01 BMatC= 2.62D-02 BMatP= 2.62D-02
 IDIUse=3 WtCom= 5.96D-01 WtEn= 4.04D-01
 Coeff-Com:  0.100D+01
 Coeff-En:   0.100D+01
 Coeff:      0.100D+01
 GapD=    2.000 DampG=2.000 DampE=0.500 DampFc=1.0000 IDamp=-1.
 RMSDP=2.26D-02 MaxDP=1.27D-01              OVMax= 0.00D+00

 Cycle   2  Pass 1  IDiag  1:
 E=-0.609907068839100E-02 Delta-E=       -0.051372003985 Rises=F Damp=F
 DIIS: error= 9.25D-03 at cycle   2 NSaved=   2.
 NSaved= 2 IEnMin= 2 EnMin=-0.609907068839100E-02 IErMin= 2 ErrMin= 9.25D-03
 ErrMax= 9.25D-03  0.00D+00 EMaxC= 1.00D-01 BMatC= 1.39D-03 BMatP= 2.62D-02
 IDIUse=3 WtCom= 9.08D-01 WtEn= 9.25D-02
 Coeff-Com: -0.298D+00 0.130D+01
 Coeff-En:   0.000D+00 0.100D+01
 Coeff:     -0.270D+00 0.127D+01
 RMSDP=6.60D-03 MaxDP=3.57D-02 DE=-5.14D-02 OVMax= 0.00D+00

 Cycle   3  Pass 1  IDiag  3:
 E=-0.894858455685110E-02 Delta-E=       -0.002849513868 Rises=F Damp=F
 DIIS: error= 3.66D-04 at cycle   3 NSaved=   3.
 NSaved= 3 IEnMin= 3 EnMin=-0.894858455685110E-02 IErMin= 3 ErrMin= 3.66D-04
 ErrMax= 3.66D-04  0.00D+00 EMaxC= 1.00D-01 BMatC= 2.83D-06 BMatP= 1.39D-03
 IDIUse=3 WtCom= 9.96D-01 WtEn= 3.66D-03
 Coeff-Com:  0.291D+00-0.131D+01 0.202D+01
 Coeff-En:   0.000D+00 0.000D+00 0.100D+01
 Coeff:      0.290D+00-0.131D+01 0.202D+01
 Gap=     0.672 Goal=   None    Shift=    0.000
 RMSDP=7.89D-04 MaxDP=2.57D-03 DE=-2.85D-03 OVMax= 2.55D-03

 Cycle   4  Pass 1  IDiag  3:
 E=-0.896292349164618E-02 Delta-E=       -0.000014338935 Rises=F Damp=F
 DIIS: error= 1.48D-05 at cycle   4 NSaved=   4.
 NSaved= 4 IEnMin= 4 EnMin=-0.896292349164618E-02 IErMin= 4 ErrMin= 1.48D-05
 ErrMax= 1.48D-05  0.00D+00 EMaxC= 1.00D-01 BMatC= 2.69D-09 BMatP= 2.83D-06
 IDIUse=1 WtCom= 1.00D+00 WtEn= 0.00D+00
 Coeff-Com: -0.362D-02 0.179D-01-0.327D-01 0.102D+01
 Coeff:     -0.362D-02 0.179D-01-0.327D-01 0.102D+01
 Gap=     0.673 Goal=   None    Shift=    0.000
 RMSDP=9.48D-06 MaxDP=5.05D-05 DE=-1.43D-05 OVMax= 5.17D-05

 Cycle   5  Pass 1  IDiag  3:
 E=-0.896292896141659E-02 Delta-E=       -0.000000005470 Rises=F Damp=F
 DIIS: error= 5.64D-07 at cycle   5 NSaved=   5.
 NSaved= 5 IEnMin= 5 EnMin=-0.896292896141659E-02 IErMin= 5 ErrMin= 5.64D-07
 ErrMax= 5.64D-07  0.00D+00 EMaxC= 1.00D-01 BMatC= 7.88D-12 BMatP= 2.69D-09
 IDIUse=1 WtCom= 1.00D+00 WtEn= 0.00D+00
 Coeff-Com:  0.375D-02-0.175D-01 0.288D-01-0.362D+00 0.135D+01
 Coeff:      0.375D-02-0.175D-01 0.288D-01-0.362D+00 0.135D+01
 Gap=     0.673 Goal=   None    Shift=    0.000
 RMSDP=7.38D-07 MaxDP=1.62D-06 DE=-5.47D-09 OVMax= 0.00D+00

 Cycle   6  Pass 1  IDiag  3:
 E=-0.896292898503859E-02 Delta-E=       -0.000000000024 Rises=F Damp=F
 DIIS: error= 1.82D-07 at cycle   6 NSaved=   6.
 NSaved= 6 IEnMin= 6 EnMin=-0.896292898503859E-02 IErMin= 6 ErrMin= 1.82D-07
 ErrMax= 1.82D-07  0.00D+00 EMaxC= 1.00D-01 BMatC= 6.70D-13 BMatP= 7.88D-12
 IDIUse=1 WtCom= 1.00D+00 WtEn= 0.00D+00
 Coeff-Com: -0.756D-03 0.382D-02-0.715D-02 0.231D+00-0.933D+00 0.171D+01
 Coeff:     -0.756D-03 0.382D-02-0.715D-02 0.231D+00-0.933D+00 0.171D+01
 Gap=     0.673 Goal=   None    Shift=    0.000
 RMSDP=2.69D-07 MaxDP=7.65D-07 DE=-2.36D-11 OVMax= 7.82D-07

 Cycle   7  Pass 1  IDiag  3:
 E=-0.896292898716844E-02 Delta-E=       -0.000000000002 Rises=F Damp=F
 DIIS: error= 3.48D-08 at cycle   7 NSaved=   7.
 NSaved= 7 IEnMin= 7 EnMin=-0.896292898716844E-02 IErMin= 7 ErrMin= 3.48D-08
 ErrMax= 3.48D-08  0.00D+00 EMaxC= 1.00D-01 BMatC= 1.69D-14 BMatP= 6.70D-13
 IDIUse=1 WtCom= 1.00D+00 WtEn= 0.00D+00
 Coeff-Com:  0.251D-03-0.131D-02 0.260D-02-0.101D+00 0.409D+00-0.756D+00
 Coeff-Com:  0.145D+01
 Coeff:      0.251D-03-0.131D-02 0.260D-02-0.101D+00 0.409D+00-0.756D+00
 Coeff:      0.145D+01
 Gap=     0.673 Goal=   None    Shift=    0.000
 RMSDP=3.18D-08 MaxDP=1.65D-07 DE=-2.13D-12 OVMax= 1.68D-07

 Cycle   8  Pass 1  IDiag  3:
 E=-0.896292898719508E-02 Delta-E=       -0.000000000000 Rises=F Damp=F
 DIIS: error= 1.05D-08 at cycle   8 NSaved=   8.
 NSaved= 8 IEnMin= 8 EnMin=-0.896292898719508E-02 IErMin= 8 ErrMin= 1.05D-08
 ErrMax= 1.05D-08  0.00D+00 EMaxC= 1.00D-01 BMatC= 1.73D-15 BMatP= 1.69D-14
 IDIUse=1 WtCom= 1.00D+00 WtEn= 0.00D+00
 Coeff-Com: -0.584D-05 0.590D-04-0.193D-03 0.170D-01-0.688D-01 0.127D+00
 Coeff-Com: -0.359D+00 0.128D+01
 Coeff:     -0.584D-05 0.590D-04-0.193D-03 0.170D-01-0.688D-01 0.127D+00
 Coeff:     -0.359D+00 0.128D+01
 Gap=     0.673 Goal=   None    Shift=    0.000
 RMSDP=7.69D-09 MaxDP=4.10D-08 DE=-2.66D-14 OVMax= 4.19D-08

 Cycle   9  Pass 2  IDiag  1:
 SCF Done:  E(RAM1) = -0.896292898720E-02 A.U. after    9 cycles
            NFock=  8  Conv=0.77D-08     -V/T= 0.9991
 KE=-9.923828799827D+00 PE=-1.351118057988D+01 EE= 9.135667810355D+00
 Leave Link  502 at Sun May 29 14:24:32 2022, MaxMem=   262144000 cpu:               0.1 elap:               0.0
 (Enter /binaries/g16/l601.exe)
 Copying SCF densities to generalized density rwf, IOpCl= 0 IROHF=0.

 **********************************************************************

            Population analysis using the SCF Density.

 **********************************************************************

 Orbital symmetries:
       Occupied  (A) (A) (A) (A)
       Virtual   (A) (A) (A) (A)
 The electronic state is 1-A.
 Alpha  occ. eigenvalues --   -1.09135  -0.49733  -0.49693  -0.49623
 Alpha virt. eigenvalues --    0.17640   0.17713   0.17752   0.20334
          Condensed to atoms (all electrons):
               1          2          3          4          5
     1  C    4.258397   0.000000   0.000000   0.000000   0.000000
     2  H    0.000000   0.935473   0.000000   0.000000   0.000000
     3  H    0.000000   0.000000   0.935243   0.000000   0.000000
     4  H    0.000000   0.000000   0.000000   0.935423   0.000000
     5  H    0.000000   0.000000   0.000000   0.000000   0.935464
 Mulliken charges:
               1
     1  C   -0.258397
     2  H    0.064527
     3  H    0.064757
     4  H    0.064577
     5  H    0.064536
 Sum of Mulliken charges =  -0.00000
 Mulliken charges with hydrogens summed into heavy atoms:
               1
     1  C   -0.000000
 Charge=             -0.0000 electrons
 Dipole moment (field-independent basis, Debye):
    X=              0.0008    Y=             -0.0000    Z=             -0.0007  Tot=              0.0011
 N-N= 1.429037864037D+01 E-N=-1.351118053997D+01  KE=-9.923828799827D+00
 Leave Link  601 at Sun May 29 14:24:32 2022, MaxMem=   262144000 cpu:               0.1 elap:               0.0
 (Enter /binaries/g16/l701.exe)
 ... and contract with generalized density number  0.
 Compute integral first derivatives.
 Leave Link  701 at Sun May 29 14:24:32 2022, MaxMem=   262144000 cpu:               0.1 elap:               0.0
 (Enter /binaries/g16/l702.exe)
 L702 exits ... SP integral derivatives will be done elsewhere.
 Leave Link  702 at Sun May 29 14:24:32 2022, MaxMem=   262144000 cpu:               0.1 elap:               0.0
 (Enter /binaries/g16/l703.exe)
 Integral derivatives from FoFJK, PRISM(SPDF).
 Compute integral first derivatives, UseDBF=F ICtDFT=           0.
 Calling FoFJK, ICntrl=      2127 FMM=F ISym2X=0 I1Cent= 0 IOpClX= 0 NMat=1 NMatS=1 NMatT=0.
 FoFJK:  IHMeth= 8 ICntrl=    2127 DoSepK=F KAlg= 0 I1Cent=           0 FoldK=F
 IRaf=         0 NMat=       1 IRICut=       1 DoRegI=T DoRafI=F ISym2E= 0 IDoP0=3 IntGTp=3.
 FoFCou: FMM=F IPFlag=           0 FMFlag=      100000 FMFlg1=         800
         NFxFlg=           0 DoJE=F BraDBF=F KetDBF=F FulRan=T
         wScrn=  0.000000 ICntrl=      2127 IOpCl=  0 I1Cent=           0 NGrid=           0
         NMat0=    1 NMatS0=      1 NMatT0=    0 NMatD0=    1 NMtDS0=    0 NMtDT0=    0
 Symmetry not used in FoFCou.
 Leave Link  703 at Sun May 29 14:24:32 2022, MaxMem=   262144000 cpu:               0.1 elap:               0.0
 (Enter /binaries/g16/l716.exe)
 Dipole        = 3.24043308D-04-2.85092585D-06-2.93570403D-04
 ***** Axes restored to original set *****
 -------------------------------------------------------------------
 Center     Atomic                   Forces (Hartrees/Bohr)
 Number     Number              X              Y              Z
 -------------------------------------------------------------------
      1        6           0.000515854    0.000715891   -0.004261023
      2        1           0.011382394   -0.032128215   -0.000037722
      3        1           0.012049670    0.017045580    0.029095296
      4        1           0.010137481    0.014341509   -0.024758843
      5        1          -0.034085398    0.000025235   -0.000037709
 -------------------------------------------------------------------
 Cartesian Forces:  Max     0.034085398 RMS     0.017409316
 Leave Link  716 at Sun May 29 14:24:32 2022, MaxMem=   262144000 cpu:               0.1 elap:               0.0
 (Enter /binaries/g16/l103.exe)

 GradGradGradGradGradGradGradGradGradGradGradGradGradGradGradGradGradGrad
 Berny optimization.
 FormGI is forming the generalized inverse of G from B-inverse, IUseBI=4.
 Internal  Forces:  Max     0.035808478 RMS     0.017982771
 Search for a local minimum.
 Step number   1 out of a maximum of   24 on scan point     1 out of    11
 All quantities printed in internal units (Hartrees-Bohrs-Radians)
 RMS Force = .16090D-01 SwitMx=.10000D-02 MixMth= 1
 Mixed Optimization -- RFO/linear search
 Second derivative matrix not updated -- first step.
 The second derivative matrix:
                          R1        R2        R3        R4        A1
           R1           0.37229
           R2           0.00000   0.37535
           R3           0.00000   0.00000   0.36611
           R4           0.00000   0.00000   0.00000   0.37230
           A1           0.00000   0.00000   0.00000   0.00000   0.16000
           A2           0.00000   0.00000   0.00000   0.00000   0.00000
           A3           0.00000   0.00000   0.00000   0.00000   0.00000
           A4           0.00000   0.00000   0.00000   0.00000   0.00000
           A5           0.00000   0.00000   0.00000   0.00000   0.00000
           A6           0.00000   0.00000   0.00000   0.00000   0.00000
           D1           0.00000   0.00000   0.00000   0.00000   0.00000
           D2           0.00000   0.00000   0.00000   0.00000   0.00000
           D3           0.00000   0.00000   0.00000   0.00000   0.00000
           D4           0.00000   0.00000   0.00000   0.00000   0.00000
                          A2        A3        A4        A5        A6
           A2           0.16000
           A3           0.00000   0.16000
           A4           0.00000   0.00000   0.16000
           A5           0.00000   0.00000   0.00000   0.16000
           A6           0.00000   0.00000   0.00000   0.00000   0.16000
           D1           0.00000   0.00000   0.00000   0.00000   0.00000
           D2           0.00000   0.00000   0.00000   0.00000   0.00000
           D3           0.00000   0.00000   0.00000   0.00000   0.00000
           D4           0.00000   0.00000   0.00000   0.00000   0.00000
                          D1        D2        D3        D4
           D1           0.00434
           D2           0.00000   0.00499
           D3           0.00000   0.00000   0.00499
           D4           0.00000   0.00000   0.00000   0.00499
 ITU=  0
     Eigenvalues ---    0.05257   0.05901   0.08731   0.16000   0.16000
     Eigenvalues ---    0.36611   0.37230   0.375351000.000001000.00000
     Eigenvalues --- 1000.000001000.000001000.000001000.00000
 RFO step:  Lambda=-8.84375695D-03 EMin= 5.25714373D-02
 Linear search not attempted -- first point.
 Iteration  1 RMS(Cart)=  0.03929894 RMS(Int)=  0.00002886
 Iteration  2 RMS(Cart)=  0.00002158 RMS(Int)=  0.00000018
 Iteration  3 RMS(Cart)=  0.00000000 RMS(Int)=  0.00000018
 Iteration  1 RMS(Cart)=  0.00000000 RMS(Int)=  0.00000000
 ITry= 1 IFail=0 DXMaxC= 8.36D-02 DCOld= 1.00D+10 DXMaxT= 3.00D-01 DXLimC= 3.00D+00 Rises=F
 Variable       Old X    -DE/DX   Delta X   Delta X   Delta X     New X
                                 (Linear)    (Quad)   (Total)
    R1        2.02202   0.03408   0.00000   0.00000  -0.00000   2.02202
    R2        2.01747   0.03581   0.00000   0.09320   0.09320   2.11068
    R3        2.03137   0.03036   0.00000   0.08096   0.08096   2.11233
    R4        2.02201   0.03409   0.00000   0.08943   0.08943   2.11144
    A1        1.91140   0.00003   0.00000   0.00047   0.00047   1.91187
    A2        1.90898  -0.00000   0.00000   0.00002   0.00002   1.90900
    A3        1.91066   0.00001   0.00000   0.00047   0.00047   1.91114
    A4        1.91226  -0.00014   0.00000  -0.00154  -0.00154   1.91072
    A5        1.91146   0.00008   0.00000   0.00053   0.00053   1.91199
    A6        1.90904   0.00003   0.00000   0.00005   0.00005   1.90908
    D1       -2.09531   0.00005   0.00000   0.00035   0.00035  -2.09496
    D2        2.09586   0.00009   0.00000   0.00120   0.00120   2.09706
    D3       -2.09141  -0.00002   0.00000  -0.00034  -0.00034  -2.09175
    D4        2.09592  -0.00011   0.00000  -0.00154  -0.00154   2.09438
         Item               Value     Threshold  Converged?
 Maximum Force            0.035808     0.000450     NO 
 RMS     Force            0.016090     0.000300     NO 
 Maximum Displacement     0.083557     0.001800     NO 
 RMS     Displacement     0.039297     0.001200     NO 
 Predicted change in Energy=-4.524670D-03
 Lowest energy point so far.  Saving SCF results.
 GradGradGradGradGradGradGradGradGradGradGradGradGradGradGradGradGradGrad

 Leave Link  103 at Sun May 29 14:24:32 2022, MaxMem=   262144000 cpu:               0.0 elap:               0.0
 (Enter /binaries/g16/l202.exe)
                          Input orientation:                          
 ---------------------------------------------------------------------
 Center     Atomic      Atomic             Coordinates (Angstroms)
 Number     Number       Type             X           Y           Z
 ---------------------------------------------------------------------
      1          6           0        4.294907    3.649825   -0.000914
      2          1           0        4.651860    2.641115   -0.001158
      3          1           0        4.668580    4.178152    0.909447
      4          1           0        4.666168    4.174834   -0.915242
      5          1           0        3.177584    3.650074   -0.001132
 ---------------------------------------------------------------------
                    Distance matrix (angstroms):
                    1          2          3          4          5
     1  C    0.000000
     2  H    1.070006   0.000000
     3  H    1.116923   1.786607   0.000000
     4  H    1.117795   1.785511   1.824694   0.000000
     5  H    1.117324   1.786475   1.825128   1.823967   0.000000
 Stoichiometry    CH4
 Framework group  C1[X(CH4)]
 Deg. of freedom     9
 Full point group                 C1      NOp   1
 RotChk:  IX=1 Diff= 1.84D+00
 Largest Abelian subgroup         C1      NOp   1
 Largest concise Abelian subgroup C1      NOp   1
                         Standard orientation:                         
 ---------------------------------------------------------------------
 Center     Atomic      Atomic             Coordinates (Angstroms)
 Number     Number       Type             X           Y           Z
 ---------------------------------------------------------------------
      1          6           0       -0.000297    0.000274   -0.004749
      2          1           0        0.002310   -0.010487   -1.074697
      3          1           0       -1.035353    0.200128    0.364351
      4          1           0        0.346500   -0.991438    0.376963
      5          1           0        0.688323    0.800150    0.361877
 ---------------------------------------------------------------------
 Rotational constants (GHZ):         155.5212505         155.4025506         150.6249795
 Leave Link  202 at Sun May 29 14:24:32 2022, MaxMem=   262144000 cpu:               0.0 elap:               0.0
 (Enter /binaries/g16/l301.exe)
 Standard basis: VSTO-6G (5D, 7F)
 Ernie: Thresh=  0.10000D-02 Tol=  0.10000D-05 Strict=F.
  NNHCO=     0 NNPyr=     0 NCTC=     0               EPep=         0.000000000
    EC=         6.804472375  ECS=         0.521154393   EG=         0.066736382
   EHC=         0.000000000  EAt=        -6.115142680  AtH=         0.604449838
 EPDDG=         0.000000000  ECC=         7.392363150 EAtT=         6.719592518
 There are     8 symmetry adapted cartesian basis functions of A   symmetry.
 There are     8 symmetry adapted basis functions of A   symmetry.
     8 basis functions,    48 primitive gaussians,     8 cartesian basis functions
     4 alpha electrons        4 beta electrons
       nuclear repulsion energy        14.1119556684 Hartrees.
 IExCor=    0 DFT=F Ex=HF Corr=None ExCW=0 ScaHFX=  1.000000
 ScaDFX=  1.000000  1.000000  1.000000  1.000000 ScalE2=  1.000000  1.000000
 IRadAn=      5 IRanWt=     -1 IRanGd=            0 ICorTp=0 IEmpDi=  4
 Integral buffers will be    131072 words long.
 Regular integral format.
 Two-electron integral symmetry is turned off.
 Leave Link  301 at Sun May 29 14:24:32 2022, MaxMem=   262144000 cpu:               0.1 elap:               0.0
 (Enter /binaries/g16/l302.exe)
 Do NDO integrals.
 NPDir=0 NMtPBC=     1 NCelOv=     1 NCel=       1 NClECP=     1 NCelD=      1
         NCelK=      1 NCelE2=     1 NClLst=     1 CellRange=     0.0.
 One-electron integrals computed using PRISM.
 NBasis=     8 RedAO= F EigKep=  0.00D+00  NBF=     8
 NBsUse=     8 1.00D-04 EigRej=  0.00D+00 NBFU=     8
 Leave Link  302 at Sun May 29 14:24:32 2022, MaxMem=   262144000 cpu:               0.2 elap:               0.0
 (Enter /binaries/g16/l303.exe)
 DipDrv:  MaxL=1.
 Leave Link  303 at Sun May 29 14:24:32 2022, MaxMem=   262144000 cpu:               0.1 elap:               0.0
 (Enter /binaries/g16/l401.exe)
 Initial guess from the checkpoint file:  "in.chk"
 B after Tr=     0.000000    0.000000    0.000000
         Rot=    0.757998   -0.322198    0.383949    0.417386 Ang= -81.42 deg.
 Guess basis will be translated and rotated to current coordinates.
 JPrj=0 DoOrth=T DoCkMO=T.
 Leave Link  401 at Sun May 29 14:24:32 2022, MaxMem=   262144000 cpu:               0.2 elap:               0.0
 (Enter /binaries/g16/l502.exe)
 Keep J ints in memory in canonical form, NReq=859348.
 FoFCou: FMM=F IPFlag=           0 FMFlag=           0 FMFlg1=           0
         NFxFlg=           0 DoJE=F BraDBF=F KetDBF=F FulRan=T
         wScrn=  0.000000 ICntrl=       600 IOpCl=  2 I1Cent=           0 NGrid=           0
         NMat0=    1 NMatS0=     14 NMatT0=    0 NMatD0=    1 NMtDS0=    0 NMtDT0=    0
 Symmetry not used in FoFCou.
 Two-electron integral symmetry not used.
 Closed shell SCF:
 Using DIIS extrapolation, IDIIS=  1040.
 Overlap will be assumed to be unity.
 NGot=   262144000 LenX=   262083483 LenY=   262082601
 Requested convergence on RMS density matrix=1.00D-08 within 128 cycles.
 Requested convergence on MAX density matrix=1.00D-06.
 Requested convergence on             energy=1.00D-06.
 No special actions if energy rises.

 Cycle   1  Pass 1  IDiag  1:
 E=-0.125404308331571E-01
 DIIS: error= 2.94D-03 at cycle   1 NSaved=   1.
 NSaved= 1 IEnMin= 1 EnMin=-0.125404308331571E-01 IErMin= 1 ErrMin= 2.94D-03
 ErrMax= 2.94D-03  0.00D+00 EMaxC= 1.00D-01 BMatC= 1.40D-04 BMatP= 1.40D-04
 IDIUse=3 WtCom= 9.71D-01 WtEn= 2.94D-02
 Coeff-Com:  0.100D+01
 Coeff-En:   0.100D+01
 Coeff:      0.100D+01
 GapD=    2.000 DampG=2.000 DampE=1.000 DampFc=2.0000 IDamp=-1.
 RMSDP=1.74D-03 MaxDP=7.61D-03              OVMax= 0.00D+00

 Cycle   2  Pass 1  IDiag  3:
 E=-0.128264603646002E-01 Delta-E=       -0.000286029531 Rises=F Damp=F
 DIIS: error= 6.54D-04 at cycle   2 NSaved=   2.
 NSaved= 2 IEnMin= 2 EnMin=-0.128264603646002E-01 IErMin= 2 ErrMin= 6.54D-04
 ErrMax= 6.54D-04  0.00D+00 EMaxC= 1.00D-01 BMatC= 7.93D-06 BMatP= 1.40D-04
 IDIUse=3 WtCom= 9.93D-01 WtEn= 6.54D-03
 Coeff-Com: -0.304D+00 0.130D+01
 Coeff-En:   0.000D+00 0.100D+01
 Coeff:     -0.302D+00 0.130D+01
 Gap=     0.658 Goal=   None    Shift=    0.000
 RMSDP=5.77D-04 MaxDP=2.25D-03 DE=-2.86D-04 OVMax= 2.11D-03

 Cycle   3  Pass 1  IDiag  3:
 E=-0.128451068221302E-01 Delta-E=       -0.000018646458 Rises=F Damp=F
 DIIS: error= 4.48D-05 at cycle   3 NSaved=   3.
 NSaved= 3 IEnMin= 3 EnMin=-0.128451068221302E-01 IErMin= 3 ErrMin= 4.48D-05
 ErrMax= 4.48D-05  0.00D+00 EMaxC= 1.00D-01 BMatC= 6.28D-08 BMatP= 7.93D-06
 IDIUse=1 WtCom= 1.00D+00 WtEn= 0.00D+00
 Coeff-Com:  0.244D+00-0.106D+01 0.181D+01
 Coeff:      0.244D+00-0.106D+01 0.181D+01
 Gap=     0.658 Goal=   None    Shift=    0.000
 RMSDP=1.20D-04 MaxDP=3.95D-04 DE=-1.86D-05 OVMax= 4.77D-04

 Cycle   4  Pass 1  IDiag  3:
 E=-0.128454569728618E-01 Delta-E=       -0.000000350151 Rises=F Damp=F
 DIIS: error= 6.13D-06 at cycle   4 NSaved=   4.
 NSaved= 4 IEnMin= 4 EnMin=-0.128454569728618E-01 IErMin= 4 ErrMin= 6.13D-06
 ErrMax= 6.13D-06  0.00D+00 EMaxC= 1.00D-01 BMatC= 5.70D-10 BMatP= 6.28D-08
 IDIUse=1 WtCom= 1.00D+00 WtEn= 0.00D+00
 Coeff-Com: -0.177D+00 0.768D+00-0.134D+01 0.175D+01
 Coeff:     -0.177D+00 0.768D+00-0.134D+01 0.175D+01
 Gap=     0.658 Goal=   None    Shift=    0.000
 RMSDP=1.13D-05 MaxDP=3.74D-05 DE=-3.50D-07 OVMax= 0.00D+00

 Cycle   5  Pass 1  IDiag  3:
 E=-0.128454599781946E-01 Delta-E=       -0.000000003005 Rises=F Damp=F
 DIIS: error= 2.98D-07 at cycle   5 NSaved=   5.
 NSaved= 5 IEnMin= 5 EnMin=-0.128454599781946E-01 IErMin= 5 ErrMin= 2.98D-07
 ErrMax= 2.98D-07  0.00D+00 EMaxC= 1.00D-01 BMatC= 2.05D-12 BMatP= 5.70D-10
 IDIUse=1 WtCom= 1.00D+00 WtEn= 0.00D+00
 Coeff-Com:  0.119D-01-0.514D-01 0.902D-01-0.108D+00 0.106D+01
 Coeff:      0.119D-01-0.514D-01 0.902D-01-0.108D+00 0.106D+01
 Gap=     0.658 Goal=   None    Shift=    0.000
 RMSDP=4.22D-07 MaxDP=1.29D-06 DE=-3.01D-09 OVMax= 0.00D+00

 Cycle   6  Pass 1  IDiag  3:
 E=-0.128454599871830E-01 Delta-E=       -0.000000000009 Rises=F Damp=F
 DIIS: error= 1.37D-07 at cycle   6 NSaved=   6.
 NSaved= 6 IEnMin= 6 EnMin=-0.128454599871830E-01 IErMin= 6 ErrMin= 1.37D-07
 ErrMax= 1.37D-07  0.00D+00 EMaxC= 1.00D-01 BMatC= 3.17D-13 BMatP= 2.05D-12
 IDIUse=1 WtCom= 1.00D+00 WtEn= 0.00D+00
 Coeff-Com:  0.110D-02-0.484D-02 0.812D-02-0.184D-01-0.595D+00 0.161D+01
 Coeff:      0.110D-02-0.484D-02 0.812D-02-0.184D-01-0.595D+00 0.161D+01
 Gap=     0.658 Goal=   None    Shift=    0.000
 RMSDP=2.57D-07 MaxDP=6.88D-07 DE=-8.99D-12 OVMax= 0.00D+00

 Cycle   7  Pass 1  IDiag  3:
 E=-0.128454599889078E-01 Delta-E=       -0.000000000002 Rises=F Damp=F
 DIIS: error= 1.36D-08 at cycle   7 NSaved=   7.
 NSaved= 7 IEnMin= 7 EnMin=-0.128454599889078E-01 IErMin= 7 ErrMin= 1.36D-08
 ErrMax= 1.36D-08  0.00D+00 EMaxC= 1.00D-01 BMatC= 3.75D-15 BMatP= 3.17D-13
 IDIUse=1 WtCom= 1.00D+00 WtEn= 0.00D+00
 Coeff-Com: -0.142D-03 0.634D-03-0.983D-03 0.405D-02 0.237D+00-0.667D+00
 Coeff-Com:  0.143D+01
 Coeff:     -0.142D-03 0.634D-03-0.983D-03 0.405D-02 0.237D+00-0.667D+00
 Coeff:      0.143D+01
 Gap=     0.658 Goal=   None    Shift=    0.000
 RMSDP=2.16D-08 MaxDP=5.86D-08 DE=-1.72D-12 OVMax= 0.00D+00

 Cycle   8  Pass 1  IDiag  3:
 E=-0.128454599889380E-01 Delta-E=       -0.000000000000 Rises=F Damp=F
 DIIS: error= 1.01D-09 at cycle   8 NSaved=   8.
 NSaved= 8 IEnMin= 8 EnMin=-0.128454599889380E-01 IErMin= 8 ErrMin= 1.01D-09
 ErrMax= 1.01D-09  0.00D+00 EMaxC= 1.00D-01 BMatC= 2.97D-17 BMatP= 3.75D-15
 IDIUse=1 WtCom= 1.00D+00 WtEn= 0.00D+00
 Coeff-Com:  0.133D-05-0.176D-04-0.402D-04-0.155D-02-0.139D+00 0.389D+00
 Coeff-Com: -0.850D+00 0.160D+01
 Coeff:      0.133D-05-0.176D-04-0.402D-04-0.155D-02-0.139D+00 0.389D+00
 Coeff:     -0.850D+00 0.160D+01
 Gap=     0.658 Goal=   None    Shift=    0.000
 RMSDP=2.34D-09 MaxDP=4.35D-09 DE=-3.02D-14 OVMax= 0.00D+00

 SCF Done:  E(RAM1) = -0.128454599889E-01 A.U. after    8 cycles
            NFock=  8  Conv=0.23D-08     -V/T= 0.9987
 KE=-9.884093561133D+00 PE=-1.329210239866D+01 EE= 9.051394831431D+00
 Leave Link  502 at Sun May 29 14:24:32 2022, MaxMem=   262144000 cpu:               0.1 elap:               0.0
 (Enter /binaries/g16/l701.exe)
 ... and contract with generalized density number  0.
 Compute integral first derivatives.
 Leave Link  701 at Sun May 29 14:24:32 2022, MaxMem=   262144000 cpu:               0.1 elap:               0.0
 (Enter /binaries/g16/l702.exe)
 L702 exits ... SP integral derivatives will be done elsewhere.
 Leave Link  702 at Sun May 29 14:24:32 2022, MaxMem=   262144000 cpu:               0.1 elap:               0.0
 (Enter /binaries/g16/l703.exe)
 Integral derivatives from FoFJK, PRISM(SPDF).
 Compute integral first derivatives, UseDBF=F ICtDFT=           0.
 Calling FoFJK, ICntrl=      2127 FMM=F ISym2X=0 I1Cent= 0 IOpClX= 0 NMat=1 NMatS=1 NMatT=0.
 FoFJK:  IHMeth= 8 ICntrl=    2127 DoSepK=F KAlg= 0 I1Cent=           0 FoldK=F
 IRaf=         0 NMat=       1 IRICut=       1 DoRegI=T DoRafI=F ISym2E= 0 IDoP0=3 IntGTp=3.
 FoFCou: FMM=F IPFlag=           0 FMFlag=      100000 FMFlg1=         800
         NFxFlg=           0 DoJE=F BraDBF=F KetDBF=F FulRan=T
         wScrn=  0.000000 ICntrl=      2127 IOpCl=  0 I1Cent=           0 NGrid=           0
         NMat0=    1 NMatS0=      1 NMatT0=    0 NMatD0=    1 NMtDS0=    0 NMtDT0=    0
 Symmetry not used in FoFCou.
 Leave Link  703 at Sun May 29 14:24:32 2022, MaxMem=   262144000 cpu:               0.1 elap:               0.0
 (Enter /binaries/g16/l716.exe)
 Dipole        = 1.71913036D-04-1.74409364D-04 8.78918655D-04
 ***** Axes restored to original set *****
 -------------------------------------------------------------------
 Center     Atomic                   Forces (Hartrees/Bohr)
 Number     Number              X              Y              Z
 -------------------------------------------------------------------
      1        6          -0.009624895    0.027344887   -0.000685659
      2        1           0.009856033   -0.027976904    0.000143717
      3        1          -0.001520440   -0.000264636   -0.002494069
      4        1          -0.001556640   -0.000318779    0.002894682
      5        1           0.002845942    0.001215433    0.000141329
 -------------------------------------------------------------------
 Cartesian Forces:  Max     0.027976904 RMS     0.010800690
 Leave Link  716 at Sun May 29 14:24:32 2022, MaxMem=   262144000 cpu:               0.1 elap:               0.0
 (Enter /binaries/g16/l103.exe)

 GradGradGradGradGradGradGradGradGradGradGradGradGradGradGradGradGradGrad
 Berny optimization.
 Using GEDIIS/GDIIS optimizer.
 FormGI is forming the generalized inverse of G from B-inverse, IUseBI=4.
 Internal  Forces:  Max     0.029662178 RMS     0.008055892
 Search for a local minimum.
 Step number   2 out of a maximum of   24 on scan point     1 out of    11
 All quantities printed in internal units (Hartrees-Bohrs-Radians)
 RMS Force = .14863D-02 SwitMx=.10000D-02 MixMth= 1
 Mixed Optimization -- RFO/linear search
 Update second derivatives using D2CorX and points    1    2
 DE= -3.88D-03 DEPred=-4.52D-03 R= 8.58D-01
 TightC=F SS=  1.41D+00  RLast= 1.52D-01 DXNew= 5.0454D-01 4.5740D-01
 Trust test= 8.58D-01 RLast= 1.52D-01 DXMaxT set to 4.57D-01
 The second derivative matrix:
                          R1        R2        R3        R4        A1
           R1           0.37433
           R2           0.01774   0.38803
           R3           0.01540   0.01392   0.38066
           R4           0.01703   0.01333   0.01434   0.38619
           A1          -0.00011  -0.00128  -0.00110  -0.00122   0.16001
           A2          -0.00024  -0.00210  -0.00182  -0.00202   0.00001
           A3          -0.00038  -0.00363  -0.00314  -0.00348   0.00002
           A4          -0.00001   0.00094   0.00079   0.00089   0.00000
           A5           0.00041   0.00322   0.00280   0.00309  -0.00002
           A6           0.00033   0.00285   0.00248   0.00274  -0.00002
           D1           0.00029   0.00250   0.00217   0.00240  -0.00002
           D2          -0.00012  -0.00107  -0.00093  -0.00103   0.00001
           D3           0.00032   0.00282   0.00245   0.00271  -0.00002
           D4           0.00044   0.00390   0.00338   0.00374  -0.00002
                          A2        A3        A4        A5        A6
           A2           0.16003
           A3           0.00004   0.16007
           A4           0.00000   0.00000   0.15999
           A5          -0.00005  -0.00008   0.00000   0.16008
           A6          -0.00004  -0.00006  -0.00000   0.00007   0.16005
           D1          -0.00003  -0.00005  -0.00000   0.00006   0.00005
           D2           0.00001   0.00002   0.00000  -0.00002  -0.00002
           D3          -0.00004  -0.00006  -0.00000   0.00007   0.00005
           D4          -0.00005  -0.00008  -0.00000   0.00009   0.00007
                          D1        D2        D3        D4
           D1           0.00438
           D2          -0.00002   0.00500
           D3           0.00005  -0.00002   0.00505
           D4           0.00006  -0.00003   0.00007   0.00509
 ITU=  1  0
 Use linear search instead of GDIIS.
     Eigenvalues ---    0.05253   0.05893   0.08734   0.15995   0.16000
     Eigenvalues ---    0.36816   0.37387   0.413431000.000001000.00000
     Eigenvalues --- 1000.000001000.000001000.000001000.00000
 RFO step:  Lambda=-5.29280664D-05 EMin= 5.25284277D-02
 Quartic linear search produced a step of -0.08587.
 Iteration  1 RMS(Cart)=  0.00643448 RMS(Int)=  0.00004909
 Iteration  2 RMS(Cart)=  0.00002661 RMS(Int)=  0.00004001
 Iteration  3 RMS(Cart)=  0.00000000 RMS(Int)=  0.00004001
 Iteration  1 RMS(Cart)=  0.00000000 RMS(Int)=  0.00000000
 ITry= 1 IFail=0 DXMaxC= 1.01D-02 DCOld= 1.00D+10 DXMaxT= 4.57D-01 DXLimC= 3.00D+00 Rises=F
 Variable       Old X    -DE/DX   Delta X   Delta X   Delta X     New X
                                 (Linear)    (Quad)   (Total)
    R1        2.02202   0.02966   0.00000   0.00000   0.00000   2.02202
    R2        2.11068  -0.00267  -0.00800   0.00143  -0.00657   2.10411
    R3        2.11233  -0.00303  -0.00695  -0.00070  -0.00766   2.10467
    R4        2.11144  -0.00285  -0.00768   0.00061  -0.00706   2.10437
    A1        1.91187   0.00027  -0.00004   0.00624   0.00623   1.91811
    A2        1.90900   0.00052  -0.00000   0.00821   0.00822   1.91721
    A3        1.91114   0.00084  -0.00004   0.00696   0.00692   1.91806
    A4        1.91072  -0.00013   0.00013  -0.00703  -0.00699   1.90373
    A5        1.91199  -0.00081  -0.00005  -0.00813  -0.00823   1.90376
    A6        1.90908  -0.00069  -0.00000  -0.00625  -0.00631   1.90278
    D1       -2.09496  -0.00057  -0.00003  -0.00837  -0.00837  -2.10333
    D2        2.09706   0.00035  -0.00010   0.00694   0.00681   2.10387
    D3       -2.09175  -0.00072   0.00003  -0.01047  -0.01041  -2.10216
    D4        2.09438  -0.00107   0.00013  -0.01741  -0.01722   2.07716
         Item               Value     Threshold  Converged?
 Maximum Force            0.003035     0.000450     NO 
 RMS     Force            0.001486     0.000300     NO 
 Maximum Displacement     0.010150     0.001800     NO 
 RMS     Displacement     0.006446     0.001200     NO 
 Predicted change in Energy=-5.553654D-05
 Lowest energy point so far.  Saving SCF results.
 GradGradGradGradGradGradGradGradGradGradGradGradGradGradGradGradGradGrad

 Leave Link  103 at Sun May 29 14:24:32 2022, MaxMem=   262144000 cpu:               0.0 elap:               0.0
 (Enter /binaries/g16/l202.exe)
                          Input orientation:                          
 ---------------------------------------------------------------------
 Center     Atomic      Atomic             Coordinates (Angstroms)
 Number     Number       Type             X           Y           Z
 ---------------------------------------------------------------------
      1          6           0        4.296235    3.646338   -0.001500
      2          1           0        4.653034    2.637573   -0.000808
      3          1           0        4.664618    4.179246    0.904076
      4          1           0        4.662534    4.176381   -0.909962
      5          1           0        3.182680    3.654462   -0.000806
 ---------------------------------------------------------------------
                    Distance matrix (angstroms):
                    1          2          3          4          5
     1  C    0.000000
     2  H    1.070006   0.000000
     3  H    1.113446   1.787653   0.000000
     4  H    1.113743   1.787339   1.814041   0.000000
     5  H    1.113585   1.787738   1.813932   1.813541   0.000000
 Stoichiometry    CH4
 Framework group  C1[X(CH4)]
 Deg. of freedom     9
 Full point group                 C1      NOp   1
 RotChk:  IX=2 Diff= 4.13D-01
 Largest Abelian subgroup         C1      NOp   1
 Largest concise Abelian subgroup C1      NOp   1
                         Standard orientation:                         
 ---------------------------------------------------------------------
 Center     Atomic      Atomic             Coordinates (Angstroms)
 Number     Number       Type             X           Y           Z
 ---------------------------------------------------------------------
      1          6           0       -0.000133    0.000010   -0.006611
      2          1           0        0.000065   -0.007548   -1.076590
      3          1           0       -1.041422   -0.106855    0.372943
      4          1           0        0.615815   -0.844616    0.377629
      5          1           0        0.426343    0.958961    0.365684
 ---------------------------------------------------------------------
 Rotational constants (GHZ):         155.7632413         155.7100875         152.4174229
 Leave Link  202 at Sun May 29 14:24:32 2022, MaxMem=   262144000 cpu:               0.0 elap:               0.0
 (Enter /binaries/g16/l301.exe)
 Standard basis: VSTO-6G (5D, 7F)
 Ernie: Thresh=  0.10000D-02 Tol=  0.10000D-05 Strict=F.
  NNHCO=     0 NNPyr=     0 NCTC=     0               EPep=         0.000000000
    EC=         6.813717461  ECS=         0.525768396   EG=         0.066855173
   EHC=         0.000000000  EAt=        -6.115142680  AtH=         0.604449838
 EPDDG=         0.000000000  ECC=         7.406341030 EAtT=         6.719592518
 There are     8 symmetry adapted cartesian basis functions of A   symmetry.
 There are     8 symmetry adapted basis functions of A   symmetry.
     8 basis functions,    48 primitive gaussians,     8 cartesian basis functions
     4 alpha electrons        4 beta electrons
       nuclear repulsion energy        14.1259335482 Hartrees.
 IExCor=    0 DFT=F Ex=HF Corr=None ExCW=0 ScaHFX=  1.000000
 ScaDFX=  1.000000  1.000000  1.000000  1.000000 ScalE2=  1.000000  1.000000
 IRadAn=      5 IRanWt=     -1 IRanGd=            0 ICorTp=0 IEmpDi=  4
 Integral buffers will be    131072 words long.
 Regular integral format.
 Two-electron integral symmetry is turned off.
 Leave Link  301 at Sun May 29 14:24:32 2022, MaxMem=   262144000 cpu:               0.1 elap:               0.0
 (Enter /binaries/g16/l302.exe)
 Do NDO integrals.
 NPDir=0 NMtPBC=     1 NCelOv=     1 NCel=       1 NClECP=     1 NCelD=      1
         NCelK=      1 NCelE2=     1 NClLst=     1 CellRange=     0.0.
 One-electron integrals computed using PRISM.
 NBasis=     8 RedAO= F EigKep=  0.00D+00  NBF=     8
 NBsUse=     8 1.00D-04 EigRej=  0.00D+00 NBFU=     8
 Leave Link  302 at Sun May 29 14:24:32 2022, MaxMem=   262144000 cpu:               0.2 elap:               0.0
 (Enter /binaries/g16/l303.exe)
 DipDrv:  MaxL=1.
 Leave Link  303 at Sun May 29 14:24:32 2022, MaxMem=   262144000 cpu:               0.1 elap:               0.0
 (Enter /binaries/g16/l401.exe)
 Initial guess from the checkpoint file:  "in.chk"
 B after Tr=    -0.000000   -0.000000    0.000000
         Rot=    0.989286   -0.000988   -0.002033   -0.145973 Ang= -16.79 deg.
 Guess basis will be translated and rotated to current coordinates.
 JPrj=0 DoOrth=T DoCkMO=T.
 Leave Link  401 at Sun May 29 14:24:32 2022, MaxMem=   262144000 cpu:               0.2 elap:               0.0
 (Enter /binaries/g16/l502.exe)
 Keep J ints in memory in canonical form, NReq=859348.
 FoFCou: FMM=F IPFlag=           0 FMFlag=           0 FMFlg1=           0
         NFxFlg=           0 DoJE=F BraDBF=F KetDBF=F FulRan=T
         wScrn=  0.000000 ICntrl=       600 IOpCl=  2 I1Cent=           0 NGrid=           0
         NMat0=    1 NMatS0=     14 NMatT0=    0 NMatD0=    1 NMtDS0=    0 NMtDT0=    0
 Symmetry not used in FoFCou.
 Two-electron integral symmetry not used.
 Closed shell SCF:
 Using DIIS extrapolation, IDIIS=  1040.
 Overlap will be assumed to be unity.
 NGot=   262144000 LenX=   262083483 LenY=   262082601
 Requested convergence on RMS density matrix=1.00D-08 within 128 cycles.
 Requested convergence on MAX density matrix=1.00D-06.
 Requested convergence on             energy=1.00D-06.
 No special actions if energy rises.

 Cycle   1  Pass 1  IDiag  1:
 E=-0.129029826725109E-01
 DIIS: error= 2.59D-04 at cycle   1 NSaved=   1.
 NSaved= 1 IEnMin= 1 EnMin=-0.129029826725109E-01 IErMin= 1 ErrMin= 2.59D-04
 ErrMax= 2.59D-04  0.00D+00 EMaxC= 1.00D-01 BMatC= 1.67D-06 BMatP= 1.67D-06
 IDIUse=3 WtCom= 9.97D-01 WtEn= 2.59D-03
 Coeff-Com:  0.100D+01
 Coeff-En:   0.100D+01
 Coeff:      0.100D+01
 RMSDP=2.87D-04 MaxDP=6.20D-04              OVMax= 0.00D+00

 Cycle   2  Pass 1  IDiag  3:
 E=-0.129085273356768E-01 Delta-E=       -0.000005544663 Rises=F Damp=F
 DIIS: error= 8.61D-05 at cycle   2 NSaved=   2.
 NSaved= 2 IEnMin= 2 EnMin=-0.129085273356768E-01 IErMin= 2 ErrMin= 8.61D-05
 ErrMax= 8.61D-05  0.00D+00 EMaxC= 1.00D-01 BMatC= 2.10D-07 BMatP= 1.67D-06
 IDIUse=1 WtCom= 1.00D+00 WtEn= 0.00D+00
 Coeff-Com: -0.485D+00 0.149D+01
 Coeff:     -0.485D+00 0.149D+01
 Gap=     0.659 Goal=   None    Shift=    0.000
 RMSDP=1.66D-04 MaxDP=3.93D-04 DE=-5.54D-06 OVMax= 8.27D-04

 Cycle   3  Pass 1  IDiag  3:
 E=-0.129094665287059E-01 Delta-E=       -0.000000939193 Rises=F Damp=F
 DIIS: error= 2.08D-05 at cycle   3 NSaved=   3.
 NSaved= 3 IEnMin= 3 EnMin=-0.129094665287059E-01 IErMin= 3 ErrMin= 2.08D-05
 ErrMax= 2.08D-05  0.00D+00 EMaxC= 1.00D-01 BMatC= 5.22D-09 BMatP= 2.10D-07
 IDIUse=1 WtCom= 1.00D+00 WtEn= 0.00D+00
 Coeff-Com:  0.245D+00-0.812D+00 0.157D+01
 Coeff:      0.245D+00-0.812D+00 0.157D+01
 Gap=     0.659 Goal=   None    Shift=    0.000
 RMSDP=3.00D-05 MaxDP=1.23D-04 DE=-9.39D-07 OVMax= 1.64D-04

 Cycle   4  Pass 1  IDiag  3:
 E=-0.129094917208299E-01 Delta-E=       -0.000000025192 Rises=F Damp=F
 DIIS: error= 3.91D-06 at cycle   4 NSaved=   4.
 NSaved= 4 IEnMin= 4 EnMin=-0.129094917208299E-01 IErMin= 4 ErrMin= 3.91D-06
 ErrMax= 3.91D-06  0.00D+00 EMaxC= 1.00D-01 BMatC= 8.86D-11 BMatP= 5.22D-09
 IDIUse=1 WtCom= 1.00D+00 WtEn= 0.00D+00
 Coeff-Com: -0.163D+00 0.541D+00-0.108D+01 0.170D+01
 Coeff:     -0.163D+00 0.541D+00-0.108D+01 0.170D+01
 Gap=     0.659 Goal=   None    Shift=    0.000
 RMSDP=4.16D-06 MaxDP=1.96D-05 DE=-2.52D-08 OVMax= 0.00D+00

 Cycle   5  Pass 1  IDiag  3:
 E=-0.129094921570516E-01 Delta-E=       -0.000000000436 Rises=F Damp=F
 DIIS: error= 7.30D-08 at cycle   5 NSaved=   5.
 NSaved= 5 IEnMin= 5 EnMin=-0.129094921570516E-01 IErMin= 5 ErrMin= 7.30D-08
 ErrMax= 7.30D-08  0.00D+00 EMaxC= 1.00D-01 BMatC= 1.25D-13 BMatP= 8.86D-11
 IDIUse=1 WtCom= 1.00D+00 WtEn= 0.00D+00
 Coeff-Com:  0.103D+00-0.343D+00 0.687D+00-0.108D+01 0.164D+01
 Coeff:      0.103D+00-0.343D+00 0.687D+00-0.108D+01 0.164D+01
 Gap=     0.659 Goal=   None    Shift=    0.000
 RMSDP=1.48D-07 MaxDP=5.28D-07 DE=-4.36D-10 OVMax= 0.00D+00

 Cycle   6  Pass 1  IDiag  3:
 E=-0.129094921576911E-01 Delta-E=       -0.000000000001 Rises=F Damp=F
 DIIS: error= 9.50D-09 at cycle   6 NSaved=   6.
 NSaved= 6 IEnMin= 6 EnMin=-0.129094921576911E-01 IErMin= 6 ErrMin= 9.50D-09
 ErrMax= 9.50D-09  0.00D+00 EMaxC= 1.00D-01 BMatC= 2.12D-15 BMatP= 1.25D-13
 IDIUse=1 WtCom= 1.00D+00 WtEn= 0.00D+00
 Coeff-Com: -0.187D-01 0.623D-01-0.124D+00 0.196D+00-0.378D+00 0.126D+01
 Coeff:     -0.187D-01 0.623D-01-0.124D+00 0.196D+00-0.378D+00 0.126D+01
 Gap=     0.659 Goal=   None    Shift=    0.000
 RMSDP=1.92D-08 MaxDP=6.31D-08 DE=-6.39D-13 OVMax= 5.87D-08

 Cycle   7  Pass 1  IDiag  3:
 E=-0.129094921577035E-01 Delta-E=       -0.000000000000 Rises=F Damp=F
 DIIS: error= 1.51D-09 at cycle   7 NSaved=   7.
 NSaved= 7 IEnMin= 7 EnMin=-0.129094921577035E-01 IErMin= 7 ErrMin= 1.51D-09
 ErrMax= 1.51D-09  0.00D+00 EMaxC= 1.00D-01 BMatC= 6.98D-17 BMatP= 2.12D-15
 IDIUse=1 WtCom= 1.00D+00 WtEn= 0.00D+00
 Coeff-Com:  0.140D-02-0.463D-02 0.922D-02-0.144D-01 0.421D-01-0.325D+00
 Coeff-Com:  0.129D+01
 Coeff:      0.140D-02-0.463D-02 0.922D-02-0.144D-01 0.421D-01-0.325D+00
 Coeff:      0.129D+01
 Gap=     0.659 Goal=   None    Shift=    0.000
 RMSDP=3.24D-09 MaxDP=8.53D-09 DE=-1.24D-14 OVMax= 0.00D+00

 SCF Done:  E(RAM1) = -0.129094921577E-01 A.U. after    7 cycles
            NFock=  7  Conv=0.32D-08     -V/T= 0.9987
 KE=-9.887377674231D+00 PE=-1.330959779683D+01 EE= 9.058132430705D+00
 Leave Link  502 at Sun May 29 14:24:32 2022, MaxMem=   262144000 cpu:               0.1 elap:               0.0
 (Enter /binaries/g16/l701.exe)
 ... and contract with generalized density number  0.
 Compute integral first derivatives.
 Leave Link  701 at Sun May 29 14:24:32 2022, MaxMem=   262144000 cpu:               0.1 elap:               0.0
 (Enter /binaries/g16/l702.exe)
 L702 exits ... SP integral derivatives will be done elsewhere.
 Leave Link  702 at Sun May 29 14:24:32 2022, MaxMem=   262144000 cpu:               0.1 elap:               0.0
 (Enter /binaries/g16/l703.exe)
 Integral derivatives from FoFJK, PRISM(SPDF).
 Compute integral first derivatives, UseDBF=F ICtDFT=           0.
 Calling FoFJK, ICntrl=      2127 FMM=F ISym2X=0 I1Cent= 0 IOpClX= 0 NMat=1 NMatS=1 NMatT=0.
 FoFJK:  IHMeth= 8 ICntrl=    2127 DoSepK=F KAlg= 0 I1Cent=           0 FoldK=F
 IRaf=         0 NMat=       1 IRICut=       1 DoRegI=T DoRafI=F ISym2E= 0 IDoP0=3 IntGTp=3.
 FoFCou: FMM=F IPFlag=           0 FMFlag=      100000 FMFlg1=         800
         NFxFlg=           0 DoJE=F BraDBF=F KetDBF=F FulRan=T
         wScrn=  0.000000 ICntrl=      2127 IOpCl=  0 I1Cent=           0 NGrid=           0
         NMat0=    1 NMatS0=      1 NMatT0=    0 NMatD0=    1 NMtDS0=    0 NMtDT0=    0
 Symmetry not used in FoFCou.
 Leave Link  703 at Sun May 29 14:24:32 2022, MaxMem=   262144000 cpu:               0.1 elap:               0.0
 (Enter /binaries/g16/l716.exe)
 Dipole        = 7.94396008D-05-1.31139930D-05 2.57924656D-03
 ***** Axes restored to original set *****
 -------------------------------------------------------------------
 Center     Atomic                   Forces (Hartrees/Bohr)
 Number     Number              X              Y              Z
 -------------------------------------------------------------------
      1        6          -0.009579980    0.027089709   -0.000250396
      2        1           0.009771024   -0.027689511    0.000065257
      3        1          -0.000082719    0.000215738   -0.000005809
      4        1          -0.000096964    0.000186196    0.000142866
      5        1          -0.000011362    0.000197869    0.000048081
 -------------------------------------------------------------------
 Cartesian Forces:  Max     0.027689511 RMS     0.010608288
 Leave Link  716 at Sun May 29 14:24:32 2022, MaxMem=   262144000 cpu:               0.1 elap:               0.0
 (Enter /binaries/g16/l103.exe)

 GradGradGradGradGradGradGradGradGradGradGradGradGradGradGradGradGradGrad
 Berny optimization.
 Using GEDIIS/GDIIS optimizer.
 FormGI is forming the generalized inverse of G from B-inverse, IUseBI=4.
 Internal  Forces:  Max     0.029362963 RMS     0.007848218
 Search for a local minimum.
 Step number   3 out of a maximum of   24 on scan point     1 out of    11
 All quantities printed in internal units (Hartrees-Bohrs-Radians)
 RMS Force = .10365D-03 SwitMx=.10000D-02 MixMth= 2
 Mixed Optimization -- En-DIIS/RFO-DIIS
 Update second derivatives using D2CorX and points    1    2    3
 DE= -6.40D-05 DEPred=-5.55D-05 R= 1.15D+00
 TightC=F SS=  1.41D+00  RLast= 3.14D-02 DXNew= 7.6925D-01 9.4084D-02
 Trust test= 1.15D+00 RLast= 3.14D-02 DXMaxT set to 4.57D-01
 The second derivative matrix:
                          R1        R2        R3        R4        A1
           R1           0.37432
           R2           0.00239   0.38532
           R3          -0.00215   0.00977   0.37460
           R4           0.00064   0.00985   0.00920   0.38184
           A1           0.00394   0.01593   0.01899   0.01736   0.15092
           A2           0.00550   0.01790   0.02162   0.01963  -0.01168
           A3           0.00566   0.00567   0.00807   0.00675  -0.00915
           A4          -0.00403  -0.02196  -0.02581  -0.02377   0.01057
           A5          -0.00616  -0.01161  -0.01479  -0.01306   0.01119
           A6          -0.00500  -0.00659  -0.00884  -0.00761   0.00840
           D1          -0.00141   0.01151   0.01234   0.01195  -0.00055
           D2           0.00097  -0.00681  -0.00740  -0.00710   0.00033
           D3          -0.00175   0.01370   0.01472   0.01423  -0.00063
           D4          -0.00272   0.02050   0.02211   0.02134  -0.00096
                          A2        A3        A4        A5        A6
           A2           0.14512
           A3          -0.01120   0.15291
           A4           0.01381   0.01142   0.14797
           A5           0.01395   0.00958  -0.01365   0.14756
           A6           0.01035   0.00675  -0.01039  -0.00898   0.15361
           D1          -0.00127  -0.00267  -0.00012   0.00237   0.00221
           D2           0.00079   0.00168   0.00009  -0.00149  -0.00139
           D3          -0.00150  -0.00320  -0.00019   0.00283   0.00265
           D4          -0.00229  -0.00488  -0.00029   0.00431   0.00404
                          D1        D2        D3        D4
           D1           0.00641
           D2          -0.00131   0.00583
           D3           0.00252  -0.00160   0.00804
           D4           0.00383  -0.00243   0.00465   0.01207
 ITU=  1  1  0
 Use linear search instead of GDIIS.
     Eigenvalues ---    0.05074   0.05503   0.08633   0.15866   0.16001
     Eigenvalues ---    0.36761   0.37365   0.400541000.000001000.00000
     Eigenvalues --- 1000.000001000.000001000.000001000.00000
 RFO step:  Lambda=-1.32236951D-06 EMin= 5.07375556D-02
 Quartic linear search produced a step of  0.09209.
 Iteration  1 RMS(Cart)=  0.00103640 RMS(Int)=  0.00000570
 Iteration  2 RMS(Cart)=  0.00000149 RMS(Int)=  0.00000547
 Iteration  3 RMS(Cart)=  0.00000000 RMS(Int)=  0.00000547
 Iteration  1 RMS(Cart)=  0.00000000 RMS(Int)=  0.00000000
 ITry= 1 IFail=0 DXMaxC= 1.78D-03 DCOld= 1.00D+10 DXMaxT= 4.57D-01 DXLimC= 3.00D+00 Rises=F
 Variable       Old X    -DE/DX   Delta X   Delta X   Delta X     New X
                                 (Linear)    (Quad)   (Total)
    R1        2.02202   0.02936   0.00000   0.00000  -0.00000   2.02202
    R2        2.10411   0.00007  -0.00061   0.00083   0.00022   2.10433
    R3        2.10467  -0.00006  -0.00071   0.00052  -0.00018   2.10449
    R4        2.10437   0.00001  -0.00065   0.00070   0.00005   2.10442
    A1        1.91811   0.00005   0.00057   0.00068   0.00126   1.91936
    A2        1.91721   0.00010   0.00076   0.00122   0.00198   1.91919
    A3        1.91806   0.00012   0.00064   0.00072   0.00136   1.91941
    A4        1.90373  -0.00005  -0.00064  -0.00108  -0.00174   1.90199
    A5        1.90376  -0.00015  -0.00076  -0.00110  -0.00186   1.90189
    A6        1.90278  -0.00009  -0.00058  -0.00048  -0.00107   1.90171
    D1       -2.10333  -0.00010  -0.00077  -0.00091  -0.00167  -2.10500
    D2        2.10387   0.00005   0.00063   0.00059   0.00121   2.10508
    D3       -2.10216  -0.00015  -0.00096  -0.00164  -0.00260  -2.10476
    D4        2.07716  -0.00020  -0.00159  -0.00223  -0.00381   2.07335
         Item               Value     Threshold  Converged?
 Maximum Force            0.000195     0.000450     YES
 RMS     Force            0.000104     0.000300     YES
 Maximum Displacement     0.001778     0.001800     YES
 RMS     Displacement     0.001037     0.001200     YES
 Predicted change in Energy=-1.137037D-06
 Optimization completed.
    -- Stationary point found.
                           ----------------------------
                           !   Optimized Parameters   !
                           ! (Angstroms and Degrees)  !
 --------------------------                            --------------------------
 ! Name  Definition              Value          Derivative Info.                !
 --------------------------------------------------------------------------------
 ! R1    R(1,2)                  1.07           -DE/DX =    0.0294              !
 ! R2    R(1,3)                  1.1134         -DE/DX =    0.0001              !
 ! R3    R(1,4)                  1.1137         -DE/DX =   -0.0001              !
 ! R4    R(1,5)                  1.1136         -DE/DX =    0.0                 !
 ! A1    A(2,1,3)              109.8994         -DE/DX =    0.0001              !
 ! A2    A(2,1,4)              109.8483         -DE/DX =    0.0001              !
 ! A3    A(2,1,5)              109.8966         -DE/DX =    0.0001              !
 ! A4    A(3,1,4)              109.0755         -DE/DX =    0.0                 !
 ! A5    A(3,1,5)              109.0772         -DE/DX =   -0.0001              !
 ! A6    A(4,1,5)              109.0211         -DE/DX =   -0.0001              !
 ! D1    D(2,1,4,3)           -120.5119         -DE/DX =   -0.0001              !
 ! D2    D(2,1,5,3)            120.5426         -DE/DX =    0.0                 !
 ! D3    D(2,1,5,4)           -120.4449         -DE/DX =   -0.0001              !
 ! D4    D(3,1,5,4)            119.0125         -DE/DX =   -0.0002              !
 --------------------------------------------------------------------------------
 Lowest energy point so far.  Saving SCF results.
 Iteration  1 RMS(Cart)=  0.04780914 RMS(Int)=  0.14351747
 Iteration  2 RMS(Cart)=  0.04780914 RMS(Int)=  0.09006522
 Iteration  3 RMS(Cart)=  0.04780914 RMS(Int)=  0.03661297
 Iteration  4 RMS(Cart)=  0.03274764 RMS(Int)=  0.00000003
 Iteration  5 RMS(Cart)=  0.00000003 RMS(Int)=  0.00000000
 Iteration  1 RMS(Cart)=  0.00000000 RMS(Int)=  0.00000000
 GradGradGradGradGradGradGradGradGradGradGradGradGradGradGradGradGradGrad

 Leave Link  103 at Sun May 29 14:24:32 2022, MaxMem=   262144000 cpu:               0.0 elap:               0.0
 (Enter /binaries/g16/l202.exe)
                          Input orientation:                          
 ---------------------------------------------------------------------
 Center     Atomic      Atomic             Coordinates (Angstroms)
 Number     Number       Type             X           Y           Z
 ---------------------------------------------------------------------
      1          6           0        4.270554    3.718966   -0.001802
      2          1           0        4.757280    2.342481   -0.000375
      3          1           0        4.638103    4.253286    0.903424
      4          1           0        4.636176    4.250568   -0.909509
      5          1           0        3.156987    3.728700   -0.000738
 ---------------------------------------------------------------------
                    Distance matrix (angstroms):
                    1          2          3          4          5
     1  C    0.000000
     2  H    1.460006   0.000000
     3  H    1.113564   2.117128   0.000000
     4  H    1.113647   2.117070   1.812936   0.000000
     5  H    1.113610   2.117201   1.812844   1.812790   0.000000
 Stoichiometry    CH4
 Framework group  C1[X(CH4)]
 Deg. of freedom     9
 Full point group                 C1      NOp   1
 RotChk:  IX=2 Diff= 2.35D+00
 Largest Abelian subgroup         C1      NOp   1
 Largest concise Abelian subgroup C1      NOp   1
                         Standard orientation:                         
 ---------------------------------------------------------------------
 Center     Atomic      Atomic             Coordinates (Angstroms)
 Number     Number       Type             X           Y           Z
 ---------------------------------------------------------------------
      1          6           0        0.031907    0.000031    0.000004
      2          1           0       -1.428099   -0.000003   -0.000263
      3          1           0        0.412158    0.987658    0.346450
      4          1           0        0.411991   -0.793915    0.682204
      5          1           0        0.412508   -0.193927   -1.028417
 ---------------------------------------------------------------------
 Rotational constants (GHZ):         152.5826727         119.3315750         119.3228331
 Leave Link  202 at Sun May 29 14:24:32 2022, MaxMem=   262144000 cpu:               0.0 elap:               0.0
 (Enter /binaries/g16/l301.exe)
 Standard basis: VSTO-6G (5D, 7F)
 Ernie: Thresh=  0.10000D-02 Tol=  0.10000D-05 Strict=F.
  NNHCO=     0 NNPyr=     0 NCTC=     0               EPep=         0.000000000
    EC=         6.515406001  ECS=         0.419854636   EG=         0.059235658
   EHC=         0.000000000  EAt=        -6.115142680  AtH=         0.604449838
 EPDDG=         0.000000000  ECC=         6.994496295 EAtT=         6.719592518
 There are     8 symmetry adapted cartesian basis functions of A   symmetry.
 There are     8 symmetry adapted basis functions of A   symmetry.
     8 basis functions,    48 primitive gaussians,     8 cartesian basis functions
     4 alpha electrons        4 beta electrons
       nuclear repulsion energy        13.7140888129 Hartrees.
 IExCor=    0 DFT=F Ex=HF Corr=None ExCW=0 ScaHFX=  1.000000
 ScaDFX=  1.000000  1.000000  1.000000  1.000000 ScalE2=  1.000000  1.000000
 IRadAn=      5 IRanWt=     -1 IRanGd=            0 ICorTp=0 IEmpDi=  4
 Integral buffers will be    131072 words long.
 Regular integral format.
 Two-electron integral symmetry is turned off.
 Leave Link  301 at Sun May 29 14:24:32 2022, MaxMem=   262144000 cpu:               0.1 elap:               0.0
 (Enter /binaries/g16/l302.exe)
 Do NDO integrals.
 NPDir=0 NMtPBC=     1 NCelOv=     1 NCel=       1 NClECP=     1 NCelD=      1
         NCelK=      1 NCelE2=     1 NClLst=     1 CellRange=     0.0.
 One-electron integrals computed using PRISM.
 NBasis=     8 RedAO= F EigKep=  0.00D+00  NBF=     8
 NBsUse=     8 1.00D-04 EigRej=  0.00D+00 NBFU=     8
 Leave Link  302 at Sun May 29 14:24:32 2022, MaxMem=   262144000 cpu:               0.2 elap:               0.0
 (Enter /binaries/g16/l303.exe)
 DipDrv:  MaxL=1.
 Leave Link  303 at Sun May 29 14:24:32 2022, MaxMem=   262144000 cpu:               0.1 elap:               0.0
 (Enter /binaries/g16/l401.exe)
 Initial guess from the checkpoint file:  "in.chk"
 B after Tr=    -0.000000   -0.000000   -0.000000
         Rot=    0.556234    0.436655   -0.553075    0.440504 Ang= 112.41 deg.
 Guess basis will be translated and rotated to current coordinates.
 JPrj=0 DoOrth=T DoCkMO=T.
 Leave Link  401 at Sun May 29 14:24:32 2022, MaxMem=   262144000 cpu:               0.2 elap:               0.0
 (Enter /binaries/g16/l502.exe)
 Keep J ints in memory in canonical form, NReq=859348.
 FoFCou: FMM=F IPFlag=           0 FMFlag=           0 FMFlg1=           0
         NFxFlg=           0 DoJE=F BraDBF=F KetDBF=F FulRan=T
         wScrn=  0.000000 ICntrl=       600 IOpCl=  2 I1Cent=           0 NGrid=           0
         NMat0=    1 NMatS0=     14 NMatT0=    0 NMatD0=    1 NMtDS0=    0 NMtDT0=    0
 Symmetry not used in FoFCou.
 Two-electron integral symmetry not used.
 Closed shell SCF:
 Using DIIS extrapolation, IDIIS=  1040.
 Overlap will be assumed to be unity.
 NGot=   262144000 LenX=   262083483 LenY=   262082601
 Requested convergence on RMS density matrix=1.00D-08 within 128 cycles.
 Requested convergence on MAX density matrix=1.00D-06.
 Requested convergence on             energy=1.00D-06.
 No special actions if energy rises.

 Cycle   1  Pass 1  IDiag  1:
 E= 0.396484655120020E-01
 DIIS: error= 1.41D-02 at cycle   1 NSaved=   1.
 NSaved= 1 IEnMin= 1 EnMin= 0.396484655120020E-01 IErMin= 1 ErrMin= 1.41D-02
 ErrMax= 1.41D-02  0.00D+00 EMaxC= 1.00D-01 BMatC= 2.49D-03 BMatP= 2.49D-03
 IDIUse=3 WtCom= 8.59D-01 WtEn= 1.41D-01
 Coeff-Com:  0.100D+01
 Coeff-En:   0.100D+01
 Coeff:      0.100D+01
 GapD=    2.000 DampG=2.000 DampE=0.500 DampFc=1.0000 IDamp=-1.
 RMSDP=8.26D-03 MaxDP=2.69D-02              OVMax= 0.00D+00

 Cycle   2  Pass 1  IDiag  3:
 E= 0.339198252004191E-01 Delta-E=       -0.005728640312 Rises=F Damp=F
 DIIS: error= 3.55D-03 at cycle   2 NSaved=   2.
 NSaved= 2 IEnMin= 2 EnMin= 0.339198252004191E-01 IErMin= 2 ErrMin= 3.55D-03
 ErrMax= 3.55D-03  0.00D+00 EMaxC= 1.00D-01 BMatC= 1.43D-04 BMatP= 2.49D-03
 IDIUse=3 WtCom= 9.65D-01 WtEn= 3.55D-02
 Coeff-Com: -0.302D+00 0.130D+01
 Coeff-En:   0.000D+00 0.100D+01
 Coeff:     -0.291D+00 0.129D+01
 Gap=     0.537 Goal=   None    Shift=    0.000
 RMSDP=2.80D-03 MaxDP=9.44D-03 DE=-5.73D-03 OVMax= 1.30D-02

 Cycle   3  Pass 1  IDiag  3:
 E= 0.335318208989914E-01 Delta-E=       -0.000388004301 Rises=F Damp=F
 DIIS: error= 2.12D-04 at cycle   3 NSaved=   3.
 NSaved= 3 IEnMin= 3 EnMin= 0.335318208989914E-01 IErMin= 3 ErrMin= 2.12D-04
 ErrMax= 2.12D-04  0.00D+00 EMaxC= 1.00D-01 BMatC= 1.49D-06 BMatP= 1.43D-04
 IDIUse=3 WtCom= 9.98D-01 WtEn= 2.12D-03
 Coeff-Com:  0.192D+00-0.858D+00 0.167D+01
 Coeff-En:   0.000D+00 0.000D+00 0.100D+01
 Coeff:      0.192D+00-0.856D+00 0.166D+01
 Gap=     0.537 Goal=   None    Shift=    0.000
 RMSDP=5.91D-04 MaxDP=1.81D-03 DE=-3.88D-04 OVMax= 1.98D-03

 Cycle   4  Pass 1  IDiag  3:
 E= 0.335235846407862E-01 Delta-E=       -0.000008236258 Rises=F Damp=F
 DIIS: error= 1.90D-05 at cycle   4 NSaved=   4.
 NSaved= 4 IEnMin= 4 EnMin= 0.335235846407862E-01 IErMin= 4 ErrMin= 1.90D-05
 ErrMax= 1.90D-05  0.00D+00 EMaxC= 1.00D-01 BMatC= 4.30D-09 BMatP= 1.49D-06
 IDIUse=1 WtCom= 1.00D+00 WtEn= 0.00D+00
 Coeff-Com: -0.145D-01 0.634D-01-0.135D+00 0.109D+01
 Coeff:     -0.145D-01 0.634D-01-0.135D+00 0.109D+01
 Gap=     0.537 Goal=   None    Shift=    0.000
 RMSDP=2.02D-05 MaxDP=5.78D-05 DE=-8.24D-06 OVMax= 0.00D+00

 Cycle   5  Pass 1  IDiag  3:
 E= 0.335235651080072E-01 Delta-E=       -0.000000019533 Rises=F Damp=F
 DIIS: error= 8.18D-06 at cycle   5 NSaved=   5.
 NSaved= 5 IEnMin= 5 EnMin= 0.335235651080072E-01 IErMin= 5 ErrMin= 8.18D-06
 ErrMax= 8.18D-06  0.00D+00 EMaxC= 1.00D-01 BMatC= 6.61D-10 BMatP= 4.30D-09
 IDIUse=1 WtCom= 1.00D+00 WtEn= 0.00D+00
 Coeff-Com: -0.374D-02 0.176D-01-0.254D-01-0.653D+00 0.166D+01
 Coeff:     -0.374D-02 0.176D-01-0.254D-01-0.653D+00 0.166D+01
 Gap=     0.537 Goal=   None    Shift=    0.000
 RMSDP=1.26D-05 MaxDP=4.11D-05 DE=-1.95D-08 OVMax= 0.00D+00

 Cycle   6  Pass 1  IDiag  3:
 E= 0.335235613475344E-01 Delta-E=       -0.000000003760 Rises=F Damp=F
 DIIS: error= 4.65D-07 at cycle   6 NSaved=   6.
 NSaved= 6 IEnMin= 6 EnMin= 0.335235613475344E-01 IErMin= 6 ErrMin= 4.65D-07
 ErrMax= 4.65D-07  0.00D+00 EMaxC= 1.00D-01 BMatC= 3.85D-12 BMatP= 6.61D-10
 IDIUse=1 WtCom= 1.00D+00 WtEn= 0.00D+00
 Coeff-Com: -0.401D-03 0.149D-02-0.569D-02 0.233D+00-0.572D+00 0.134D+01
 Coeff:     -0.401D-03 0.149D-02-0.569D-02 0.233D+00-0.572D+00 0.134D+01
 Gap=     0.537 Goal=   None    Shift=    0.000
 RMSDP=6.86D-07 MaxDP=2.14D-06 DE=-3.76D-09 OVMax= 0.00D+00

 Cycle   7  Pass 1  IDiag  3:
 E= 0.335235613323999E-01 Delta-E=       -0.000000000015 Rises=F Damp=F
 DIIS: error= 8.05D-08 at cycle   7 NSaved=   7.
 NSaved= 7 IEnMin= 7 EnMin= 0.335235613323999E-01 IErMin= 7 ErrMin= 8.05D-08
 ErrMax= 8.05D-08  0.00D+00 EMaxC= 1.00D-01 BMatC= 6.84D-14 BMatP= 3.85D-12
 IDIUse=1 WtCom= 1.00D+00 WtEn= 0.00D+00
 Coeff-Com:  0.189D-04 0.160D-03 0.199D-02-0.187D+00 0.467D+00-0.110D+01
 Coeff-Com:  0.182D+01
 Coeff:      0.189D-04 0.160D-03 0.199D-02-0.187D+00 0.467D+00-0.110D+01
 Coeff:      0.182D+01
 Gap=     0.537 Goal=   None    Shift=    0.000
 RMSDP=1.36D-07 MaxDP=5.36D-07 DE=-1.51D-11 OVMax= 0.00D+00

 Cycle   8  Pass 1  IDiag  3:
 E= 0.335235613320179E-01 Delta-E=       -0.000000000000 Rises=F Damp=F
 DIIS: error= 6.80D-09 at cycle   8 NSaved=   8.
 NSaved= 8 IEnMin= 8 EnMin= 0.335235613320179E-01 IErMin= 8 ErrMin= 6.80D-09
 ErrMax= 6.80D-09  0.00D+00 EMaxC= 1.00D-01 BMatC= 6.34D-16 BMatP= 6.84D-14
 IDIUse=1 WtCom= 1.00D+00 WtEn= 0.00D+00
 Coeff-Com:  0.197D-04-0.242D-03-0.978D-03 0.117D+00-0.294D+00 0.689D+00
 Coeff-Com: -0.116D+01 0.165D+01
 Coeff:      0.197D-04-0.242D-03-0.978D-03 0.117D+00-0.294D+00 0.689D+00
 Coeff:     -0.116D+01 0.165D+01
 Gap=     0.537 Goal=   None    Shift=    0.000
 RMSDP=1.21D-08 MaxDP=3.99D-08 DE=-3.82D-13 OVMax= 0.00D+00

 Cycle   9  Pass 1  IDiag  3:
 E= 0.335235613320055E-01 Delta-E=       -0.000000000000 Rises=F Damp=F
 DIIS: error= 1.20D-09 at cycle   9 NSaved=   9.
 NSaved= 9 IEnMin= 9 EnMin= 0.335235613320055E-01 IErMin= 9 ErrMin= 1.20D-09
 ErrMax= 1.20D-09  0.00D+00 EMaxC= 1.00D-01 BMatC= 9.00D-18 BMatP= 6.34D-16
 IDIUse=1 WtCom= 1.00D+00 WtEn= 0.00D+00
 Coeff-Com:  0.274D-06-0.255D-06 0.928D-05-0.790D-03 0.197D-02-0.467D-02
 Coeff-Com:  0.142D-01-0.679D-01 0.106D+01
 Coeff:      0.274D-06-0.255D-06 0.928D-05-0.790D-03 0.197D-02-0.467D-02
 Coeff:      0.142D-01-0.679D-01 0.106D+01
 Gap=     0.537 Goal=   None    Shift=    0.000
 RMSDP=1.43D-09 MaxDP=6.95D-09 DE=-1.24D-14 OVMax= 7.63D-09

 Cycle  10  Pass 2  IDiag  1:
 SCF Done:  E(RAM1) =  0.335235613320E-01 A.U. after   10 cycles
            NFock=  9  Conv=0.14D-08     -V/T= 1.0034
 KE=-9.767531389448D+00 PE=-1.274405400825D+01 EE= 8.831020146097D+00
 Leave Link  502 at Sun May 29 14:24:33 2022, MaxMem=   262144000 cpu:               0.1 elap:               0.0
 (Enter /binaries/g16/l701.exe)
 ... and contract with generalized density number  0.
 Compute integral first derivatives.
 Leave Link  701 at Sun May 29 14:24:33 2022, MaxMem=   262144000 cpu:               0.1 elap:               0.0
 (Enter /binaries/g16/l702.exe)
 L702 exits ... SP integral derivatives will be done elsewhere.
 Leave Link  702 at Sun May 29 14:24:33 2022, MaxMem=   262144000 cpu:               0.1 elap:               0.0
 (Enter /binaries/g16/l703.exe)
 Integral derivatives from FoFJK, PRISM(SPDF).
 Compute integral first derivatives, UseDBF=F ICtDFT=           0.
 Calling FoFJK, ICntrl=      2127 FMM=F ISym2X=0 I1Cent= 0 IOpClX= 0 NMat=1 NMatS=1 NMatT=0.
 FoFJK:  IHMeth= 8 ICntrl=    2127 DoSepK=F KAlg= 0 I1Cent=           0 FoldK=F
 IRaf=         0 NMat=       1 IRICut=       1 DoRegI=T DoRafI=F ISym2E= 0 IDoP0=3 IntGTp=3.
 FoFCou: FMM=F IPFlag=           0 FMFlag=      100000 FMFlg1=         800
         NFxFlg=           0 DoJE=F BraDBF=F KetDBF=F FulRan=T
         wScrn=  0.000000 ICntrl=      2127 IOpCl=  0 I1Cent=           0 NGrid=           0
         NMat0=    1 NMatS0=      1 NMatT0=    0 NMatD0=    1 NMtDS0=    0 NMtDT0=    0
 Symmetry not used in FoFCou.
 Leave Link  703 at Sun May 29 14:24:33 2022, MaxMem=   262144000 cpu:               0.1 elap:               0.0
 (Enter /binaries/g16/l716.exe)
 Dipole        = 1.49541013D-02-1.50290583D-05 6.94389166D-06
 ***** Axes restored to original set *****
 -------------------------------------------------------------------
 Center     Atomic                   Forces (Hartrees/Bohr)
 Number     Number              X              Y              Z
 -------------------------------------------------------------------
      1        6           0.026502953   -0.074966926    0.000021470
      2        1          -0.037278639    0.105412421   -0.000104763
      3        1           0.001757391   -0.010791793   -0.003347823
      4        1           0.001755504   -0.010796299    0.003416821
      5        1           0.007262790   -0.008857403    0.000014296
 -------------------------------------------------------------------
 Cartesian Forces:  Max     0.105412421 RMS     0.035793119
 Leave Link  716 at Sun May 29 14:24:33 2022, MaxMem=   262144000 cpu:               0.1 elap:               0.0
 (Enter /binaries/g16/l103.exe)

 GradGradGradGradGradGradGradGradGradGradGradGradGradGradGradGradGradGrad
 Berny optimization.
 FormGI is forming the generalized inverse of G from B-inverse, IUseBI=4.
 Internal  Forces:  Max     0.111810046 RMS     0.030329633
 Search for a local minimum.
 Step number   1 out of a maximum of   24 on scan point     2 out of    11
 All quantities printed in internal units (Hartrees-Bohrs-Radians)
 RMS Force = .53846D-02 SwitMx=.10000D-02 MixMth= 1
 Mixed Optimization -- RFO/linear search
 Second derivative matrix not updated -- first step.
 The second derivative matrix:
                          R1        R2        R3        R4        A1
           R1           0.37432
           R2           0.00239   0.38532
           R3          -0.00215   0.00977   0.37460
           R4           0.00064   0.00985   0.00920   0.38184
           A1           0.00394   0.01593   0.01899   0.01736   0.15092
           A2           0.00550   0.01790   0.02162   0.01963  -0.01168
           A3           0.00566   0.00567   0.00807   0.00675  -0.00915
           A4          -0.00403  -0.02196  -0.02581  -0.02377   0.01057
           A5          -0.00616  -0.01161  -0.01479  -0.01306   0.01119
           A6          -0.00500  -0.00659  -0.00884  -0.00761   0.00840
           D1          -0.00141   0.01151   0.01234   0.01195  -0.00055
           D2           0.00097  -0.00681  -0.00740  -0.00710   0.00033
           D3          -0.00175   0.01370   0.01472   0.01423  -0.00063
           D4          -0.00272   0.02050   0.02211   0.02134  -0.00096
                          A2        A3        A4        A5        A6
           A2           0.14512
           A3          -0.01120   0.15291
           A4           0.01381   0.01142   0.14797
           A5           0.01395   0.00958  -0.01365   0.14756
           A6           0.01035   0.00675  -0.01039  -0.00898   0.15361
           D1          -0.00127  -0.00267  -0.00012   0.00237   0.00221
           D2           0.00079   0.00168   0.00009  -0.00149  -0.00139
           D3          -0.00150  -0.00320  -0.00019   0.00283   0.00265
           D4          -0.00229  -0.00488  -0.00029   0.00431   0.00404
                          D1        D2        D3        D4
           D1           0.00641
           D2          -0.00131   0.00583
           D3           0.00252  -0.00160   0.00804
           D4           0.00383  -0.00243   0.00465   0.01207
 ITU=  0
[...]
 RMSDP=3.00D-05 MaxDP=1.19D-04 DE=-1.90D-07 OVMax= 1.23D-04

 Cycle   5  Pass 1  IDiag  3:
 E= 0.298666121821317     Delta-E=       -0.000000015710 Rises=F Damp=F
 DIIS: error= 3.88D-07 at cycle   5 NSaved=   5.
 NSaved= 5 IEnMin= 5 EnMin= 0.298666121821317     IErMin= 5 ErrMin= 3.88D-07
 ErrMax= 3.88D-07  0.00D+00 EMaxC= 1.00D-01 BMatC= 1.76D-12 BMatP= 2.38D-09
 IDIUse=1 WtCom= 1.00D+00 WtEn= 0.00D+00
 Coeff-Com: -0.115D+00 0.380D+00-0.124D+00-0.107D+01 0.193D+01
 Coeff:     -0.115D+00 0.380D+00-0.124D+00-0.107D+01 0.193D+01
 Gap=     0.106 Goal=   None    Shift=    0.000
 RMSDP=5.82D-07 MaxDP=2.10D-06 DE=-1.57D-08 OVMax= 0.00D+00

 Cycle   6  Pass 1  IDiag  3:
 E= 0.298666121812913     Delta-E=       -0.000000000008 Rises=F Damp=F
 DIIS: error= 3.13D-08 at cycle   6 NSaved=   6.
 NSaved= 6 IEnMin= 6 EnMin= 0.298666121812913     IErMin= 6 ErrMin= 3.13D-08
 ErrMax= 3.13D-08  0.00D+00 EMaxC= 1.00D-01 BMatC= 1.58D-14 BMatP= 1.76D-12
 IDIUse=1 WtCom= 1.00D+00 WtEn= 0.00D+00
 Coeff-Com:  0.842D-01-0.280D+00 0.908D-01 0.785D+00-0.142D+01 0.174D+01
 Coeff:      0.842D-01-0.280D+00 0.908D-01 0.785D+00-0.142D+01 0.174D+01
 Gap=     0.106 Goal=   None    Shift=    0.000
 RMSDP=9.20D-08 MaxDP=2.93D-07 DE=-8.40D-12 OVMax= 0.00D+00

 Cycle   7  Pass 1  IDiag  3:
 E= 0.298666121812804     Delta-E=       -0.000000000000 Rises=F Damp=F
 DIIS: error= 1.78D-08 at cycle   7 NSaved=   7.
 NSaved= 7 IEnMin= 7 EnMin= 0.298666121812804     IErMin= 7 ErrMin= 1.78D-08
 ErrMax= 1.78D-08  0.00D+00 EMaxC= 1.00D-01 BMatC= 1.72D-15 BMatP= 1.58D-14
 IDIUse=1 WtCom= 1.00D+00 WtEn= 0.00D+00
 Coeff-Com: -0.246D-01 0.818D-01-0.262D-01-0.230D+00 0.419D+00-0.630D+00
 Coeff-Com:  0.141D+01
 Coeff:     -0.246D-01 0.818D-01-0.262D-01-0.230D+00 0.419D+00-0.630D+00
 Coeff:      0.141D+01
 Gap=     0.106 Goal=   None    Shift=    0.000
 RMSDP=2.76D-08 MaxDP=1.31D-07 DE=-1.08D-13 OVMax= 0.00D+00

 Cycle   8  Pass 1  IDiag  3:
 E= 0.298666121812792     Delta-E=       -0.000000000000 Rises=F Damp=F
 DIIS: error= 3.90D-09 at cycle   8 NSaved=   8.
 NSaved= 8 IEnMin= 8 EnMin= 0.298666121812792     IErMin= 8 ErrMin= 3.90D-09
 ErrMax= 3.90D-09  0.00D+00 EMaxC= 1.00D-01 BMatC= 7.30D-17 BMatP= 1.72D-15
 IDIUse=1 WtCom= 1.00D+00 WtEn= 0.00D+00
 Coeff-Com:  0.499D-02-0.166D-01 0.521D-02 0.466D-01-0.857D-01 0.154D+00
 Coeff-Com: -0.494D+00 0.139D+01
 Coeff:      0.499D-02-0.166D-01 0.521D-02 0.466D-01-0.857D-01 0.154D+00
 Coeff:     -0.494D+00 0.139D+01
 Gap=     0.106 Goal=   None    Shift=    0.000
 RMSDP=5.56D-09 MaxDP=2.82D-08 DE=-1.24D-14 OVMax= 0.00D+00

 SCF Done:  E(RAM1) =  0.298666121813     A.U. after    8 cycles
            NFock=  8  Conv=0.56D-08     -V/T= 1.0312
 KE=-9.572240735150D+00 PE=-1.052865602849D+01 EE= 7.766717352872D+00
 Leave Link  502 at Sun May 29 14:24:39 2022, MaxMem=   262144000 cpu:               0.1 elap:               0.0
 (Enter /binaries/g16/l701.exe)
 ... and contract with generalized density number  0.
 Compute integral first derivatives.
 Leave Link  701 at Sun May 29 14:24:39 2022, MaxMem=   262144000 cpu:               0.1 elap:               0.0
 (Enter /binaries/g16/l702.exe)
 L702 exits ... SP integral derivatives will be done elsewhere.
 Leave Link  702 at Sun May 29 14:24:39 2022, MaxMem=   262144000 cpu:               0.1 elap:               0.0
 (Enter /binaries/g16/l703.exe)
 Integral derivatives from FoFJK, PRISM(SPDF).
 Compute integral first derivatives, UseDBF=F ICtDFT=           0.
 Calling FoFJK, ICntrl=      2127 FMM=F ISym2X=0 I1Cent= 0 IOpClX= 0 NMat=1 NMatS=1 NMatT=0.
 FoFJK:  IHMeth= 8 ICntrl=    2127 DoSepK=F KAlg= 0 I1Cent=           0 FoldK=F
 IRaf=         0 NMat=       1 IRICut=       1 DoRegI=T DoRafI=F ISym2E= 0 IDoP0=3 IntGTp=3.
 FoFCou: FMM=F IPFlag=           0 FMFlag=      100000 FMFlg1=         800
         NFxFlg=           0 DoJE=F BraDBF=F KetDBF=F FulRan=T
         wScrn=  0.000000 ICntrl=      2127 IOpCl=  0 I1Cent=           0 NGrid=           0
         NMat0=    1 NMatS0=      1 NMatT0=    0 NMatD0=    1 NMtDS0=    0 NMtDT0=    0
 Symmetry not used in FoFCou.
 Leave Link  703 at Sun May 29 14:24:39 2022, MaxMem=   262144000 cpu:               0.1 elap:               0.0
 (Enter /binaries/g16/l716.exe)
 Dipole        = 7.86449635D-01 6.93952395D-07-6.81634017D-06
 ***** Axes restored to original set *****
 -------------------------------------------------------------------
 Center     Atomic                   Forces (Hartrees/Bohr)
 Number     Number              X              Y              Z
 -------------------------------------------------------------------
      1        6           0.001951735   -0.005524653    0.000006151
      2        1          -0.001953481    0.005525580   -0.000005915
      3        1           0.000001699    0.000000116    0.000001347
      4        1           0.000001750    0.000000145   -0.000001545
      5        1          -0.000001703   -0.000001187   -0.000000039
 -------------------------------------------------------------------
 Cartesian Forces:  Max     0.005525580 RMS     0.002139771
 Leave Link  716 at Sun May 29 14:24:39 2022, MaxMem=   262144000 cpu:               0.1 elap:               0.0
 (Enter /binaries/g16/l103.exe)

 GradGradGradGradGradGradGradGradGradGradGradGradGradGradGradGradGradGrad
 Berny optimization.
 Using GEDIIS/GDIIS optimizer.
 FormGI is forming the generalized inverse of G from B-inverse, IUseBI=4.
 Internal  Forces:  Max     0.005860730 RMS     0.001566346
 Search for a local minimum.
 Step number   2 out of a maximum of   24 on scan point    11 out of    11
 All quantities printed in internal units (Hartrees-Bohrs-Radians)
 RMS Force = .10610D-05 SwitMx=.10000D-02 MixMth= 2
 Mixed Optimization -- En-DIIS/RFO-DIIS
 Update second derivatives using D2CorX and points    1    2
 DE= -1.54D-06 DEPred=-1.53D-06 R= 1.00D+00
 TightC=F SS=  1.41D+00  RLast= 1.40D-02 DXNew= 1.2760D+00 4.2094D-02
 Trust test= 1.00D+00 RLast= 1.40D-02 DXMaxT set to 7.59D-01
 The second derivative matrix:
                          R1        R2        R3        R4        A1
           R1           0.37388
           R2           0.01010   0.38745
           R3           0.00514   0.01117   0.37527
           R4           0.00848   0.01231   0.01093   0.38473
           A1          -0.00430   0.00484   0.00782   0.00603   0.13456
           A2          -0.00201   0.01056   0.01427   0.01215  -0.02887
           A3          -0.00261   0.00303   0.00530   0.00387  -0.03113
           A4          -0.00566  -0.01044  -0.01381  -0.01227   0.01882
           A5          -0.00750  -0.00867  -0.01146  -0.01004   0.02498
           A6          -0.00571  -0.00341  -0.00518  -0.00425   0.02342
           D1          -0.00041   0.00432   0.00522   0.00486   0.00486
           D2           0.00072   0.00125   0.00075   0.00114  -0.00426
           D3          -0.00077   0.00433   0.00531   0.00480   0.00598
           D4          -0.00150   0.00308   0.00456   0.00366   0.01024
                          A2        A3        A4        A5        A6
           A2           0.12716
           A3          -0.03347   0.12616
           A4           0.02062   0.01679   0.13664
           A5           0.02610   0.02053  -0.02274   0.14005
           A6           0.02357   0.01911  -0.01991  -0.01702   0.14483
           D1           0.00357   0.00253   0.00281   0.00470   0.00410
           D2          -0.00340  -0.00230  -0.00406  -0.00487  -0.00459
           D3           0.00455   0.00294   0.00438   0.00632   0.00575
           D4           0.00795   0.00523   0.00844   0.01120   0.01034
                          D1        D2        D3        D4
           D1           0.00567
           D2          -0.00145   0.00701
           D3           0.00215  -0.00250   0.00847
           D4           0.00359  -0.00451   0.00597   0.01548
 ITU=  1  0
 Use linear search instead of GDIIS.
     Eigenvalues ---    0.01539   0.06622   0.11764   0.15922   0.16117
     Eigenvalues ---    0.36738   0.37377   0.406711000.000001000.00000
     Eigenvalues --- 1000.000001000.000001000.000001000.00000
 RFO step:  Lambda= 0.00000000D+00 EMin= 1.53858800D-02
 Quartic linear search produced a step of  0.00290.
 Iteration  1 RMS(Cart)=  0.00000592 RMS(Int)=  0.00000002
 Iteration  2 RMS(Cart)=  0.00000000 RMS(Int)=  0.00000002
 Iteration  1 RMS(Cart)=  0.00000000 RMS(Int)=  0.00000000
 ITry= 1 IFail=0 DXMaxC= 1.06D-05 DCOld= 1.00D+10 DXMaxT= 7.59D-01 DXLimC= 3.00D+00 Rises=F
 Variable       Old X    -DE/DX   Delta X   Delta X   Delta X     New X
                                 (Linear)    (Quad)   (Total)
    R1        9.39195  -0.00586  -0.00000   0.00000   0.00000   9.39195
    R2        2.05406   0.00000  -0.00000   0.00000   0.00000   2.05406
    R3        2.05405   0.00000  -0.00000   0.00001   0.00001   2.05406
    R4        2.05406   0.00000  -0.00000   0.00000   0.00000   2.05406
    A1        1.58860  -0.00000  -0.00001   0.00000  -0.00001   1.58859
    A2        1.58858  -0.00000  -0.00001   0.00000  -0.00001   1.58858
    A3        1.58870  -0.00000  -0.00001  -0.00000  -0.00001   1.58869
    A4        2.09386  -0.00000   0.00000  -0.00001  -0.00001   2.09385
    A5        2.09384   0.00000   0.00000   0.00000   0.00000   2.09384
    A6        2.09384   0.00000   0.00000   0.00000   0.00000   2.09384
    D1       -1.60161   0.00000   0.00001   0.00000   0.00001  -1.60159
    D2        1.60167  -0.00000  -0.00001  -0.00000  -0.00001   1.60166
    D3       -1.60166   0.00000   0.00001   0.00000   0.00001  -1.60165
    D4        3.07985   0.00000   0.00003   0.00000   0.00003   3.07988
         Item               Value     Threshold  Converged?
 Maximum Force            0.000002     0.000450     YES
 RMS     Force            0.000001     0.000300     YES
 Maximum Displacement     0.000011     0.001800     YES
 RMS     Displacement     0.000006     0.001200     YES
 Predicted change in Energy=-3.318580D-11
 Optimization completed.
    -- Stationary point found.
                           ----------------------------
                           !   Optimized Parameters   !
                           ! (Angstroms and Degrees)  !
 --------------------------                            --------------------------
 ! Name  Definition              Value          Derivative Info.                !
 --------------------------------------------------------------------------------
 ! R1    R(1,2)                  4.97           -DE/DX =   -0.0059              !
 ! R2    R(1,3)                  1.087          -DE/DX =    0.0                 !
 ! R3    R(1,4)                  1.087          -DE/DX =    0.0                 !
 ! R4    R(1,5)                  1.087          -DE/DX =    0.0                 !
 ! A1    A(2,1,3)               91.0198         -DE/DX =    0.0                 !
 ! A2    A(2,1,4)               91.0192         -DE/DX =    0.0                 !
 ! A3    A(2,1,5)               91.0258         -DE/DX =    0.0                 !
 ! A4    A(3,1,4)              119.9691         -DE/DX =    0.0                 !
 ! A5    A(3,1,5)              119.9681         -DE/DX =    0.0                 !
 ! A6    A(4,1,5)              119.9682         -DE/DX =    0.0                 !
 ! D1    D(2,1,4,3)            -91.7654         -DE/DX =    0.0                 !
 ! D2    D(2,1,5,3)             91.7692         -DE/DX =    0.0                 !
 ! D3    D(2,1,5,4)            -91.7685         -DE/DX =    0.0                 !
 ! D4    D(3,1,5,4)            176.4623         -DE/DX =    0.0                 !
 --------------------------------------------------------------------------------
 Lowest energy point so far.  Saving SCF results.
 Summary of Optimized Potential Surface Scan (add -0.0 to energies):
                           1         2         3         4         5
     Eigenvalues --    -0.01291   0.03095   0.11165   0.17674   0.22168
           R1           1.07001   1.46001   1.85001   2.24001   2.63001
           R2           1.11345   1.09871   1.09169   1.08856   1.08755
           R3           1.11374   1.09910   1.09171   1.08860   1.08756
           R4           1.11359   1.09866   1.09185   1.08862   1.08758
           A1         109.89938 105.37482 100.74113  96.93176  94.43079
           A2         109.84830 105.21259 100.76073  96.94821  94.43672
           A3         109.89660 105.15718 100.71189  96.92495  94.43211
           A4         109.07547 113.28726 116.72824 118.61923 119.43283
           A5         109.07718 113.40949 116.55206 118.54430 119.39899
           A6         109.02108 113.33430 116.55231 118.52683 119.39463
           D1        -120.51185-114.59295-107.94511-101.82945 -97.62847
           D2         120.54261 114.62040 107.85273 101.79806  97.62060
           D3        -120.44491-114.38911-107.87584-101.81303 -97.62679
           D4         119.01248 130.99048 144.27143 156.38891 164.75261
                           6         7         8         9        10
     Eigenvalues --     0.25022   0.26799   0.27962   0.28778   0.29387
           R1           3.02001   3.41001   3.80001   4.19001   4.58001
           R2           1.08722   1.08708   1.08704   1.08701   1.08699
           R3           1.08720   1.08707   1.08704   1.08701   1.08698
           R4           1.08720   1.08706   1.08705   1.08702   1.08699
           A1          93.07067  92.22815  91.72115  91.40423  91.18480
           A2          93.07211  92.22808  91.72044  91.40343  91.18406
           A3          93.07667  92.23509  91.72795  91.41073  91.19102
           A4         119.70560 119.85283 119.91662 119.94438 119.95929
           A5         119.71862 119.84727 119.90697 119.93819 119.95651
           A6         119.72132 119.84930 119.90732 119.93821 119.95655
           D1         -95.30059 -93.85265 -92.97794 -92.43022 -92.05075
           D2          95.30462  93.85627  92.98169  92.43414  92.05466
           D3         -95.30658 -93.85634 -92.98090 -92.43322 -92.05381
           D4         169.38880 172.28739 174.03740 175.13265 175.89153
                          11
     Eigenvalues --     0.29867
           R1           4.97001
           R2           1.08696
           R3           1.08696
           R4           1.08696
           A1          91.01984
           A2          91.01921
           A3          91.02580
           A4         119.96911
           A5         119.96810
           A6         119.96816
           D1         -91.76542
           D2          91.76919
           D3         -91.76846
           D4         176.46235
 Largest change from initial coordinates is atom    2       2.019 Angstoms.
 GradGradGradGradGradGradGradGradGradGradGradGradGradGradGradGradGradGrad

 Leave Link  103 at Sun May 29 14:24:39 2022, MaxMem=   262144000 cpu:               0.0 elap:               0.0
 (Enter /binaries/g16/l202.exe)
                          Input orientation:                          
 ---------------------------------------------------------------------
 Center     Atomic      Atomic             Coordinates (Angstroms)
 Number     Number       Type             X           Y           Z
 ---------------------------------------------------------------------
      1          6           0        3.964382    4.584997   -0.002792
      2          1           0        5.620956   -0.100800    0.002225
      3          1           0        4.471250    4.785717    0.937568
      4          1           0        4.469253    4.782982   -0.944804
      5          1           0        2.933258    4.241104   -0.001197
 ---------------------------------------------------------------------
                    Distance matrix (angstroms):
                    1          2          3          4          5
     1  C    0.000000
     2  H    4.970006   0.000000
     3  H    1.086959   5.106343   0.000000
     4  H    1.086959   5.106331   1.882375   0.000000
     5  H    1.086960   5.106453   1.882367   1.882367   0.000000
 Stoichiometry    CH4
 Framework group  C1[X(CH4)]
 Deg. of freedom     9
 Full point group                 C1      NOp   1
 RotChk:  IX=0 Diff= 1.21D-11
 Largest Abelian subgroup         C1      NOp   1
 Largest concise Abelian subgroup C1      NOp   1
                         Standard orientation:                         
 ---------------------------------------------------------------------
 Center     Atomic      Atomic             Coordinates (Angstroms)
 Number     Number       Type             X           Y           Z
 ---------------------------------------------------------------------
      1          6           0        0.491187    0.000000   -0.000004
      2          1           0       -4.478819   -0.000003    0.000028
      3          1           0        0.510530   -0.931545   -0.559762
      4          1           0        0.510517    0.950542   -0.526859
      5          1           0        0.510653   -0.018996    1.086616
 ---------------------------------------------------------------------
 Rotational constants (GHZ):         141.5214294          20.0927658          20.0927484
 Leave Link  202 at Sun May 29 14:24:39 2022, MaxMem=   262144000 cpu:               0.0 elap:               0.0
 (Enter /binaries/g16/l601.exe)
 Copying SCF densities to generalized density rwf, IOpCl= 0 IROHF=0.

 **********************************************************************

            Population analysis using the SCF Density.

 **********************************************************************

 Orbital symmetries:
       Occupied  (A) (A) (A) (A)
       Virtual   (A) (A) (A) (A)
 The electronic state is 1-A.
 Alpha  occ. eigenvalues --   -1.01422  -0.52490  -0.52490  -0.21970
 Alpha virt. eigenvalues --   -0.11406   0.15246   0.16886   0.16886
          Condensed to atoms (all electrons):
               1          2          3          4          5
     1  C    4.247737   0.000000   0.000000   0.000000   0.000000
     2  H    0.000000   1.081150   0.000000   0.000000   0.000000
     3  H    0.000000   0.000000   0.890370   0.000000   0.000000
     4  H    0.000000   0.000000   0.000000   0.890370   0.000000
     5  H    0.000000   0.000000   0.000000   0.000000   0.890372
 Mulliken charges:
               1
     1  C   -0.247737
     2  H   -0.081150
     3  H    0.109630
     4  H    0.109630
     5  H    0.109628
 Sum of Mulliken charges =   0.00000
 Mulliken charges with hydrogens summed into heavy atoms:
               1
     1  C    0.000000
 Charge=              0.0000 electrons
 Dipole moment (field-independent basis, Debye):
    X=              1.9990    Y=              0.0000    Z=             -0.0000  Tot=              1.9990
 N-N= 1.263284553258D+01 E-N=-1.052865595183D+01  KE=-9.572240735150D+00
 Leave Link  601 at Sun May 29 14:24:39 2022, MaxMem=   262144000 cpu:               0.1 elap:               0.0
 (Enter /binaries/g16/l9999.exe)
 Unable to Open any file for archive entry.
 1\1\GINC-WEB\Scan\RAM1\ZDO\C1H4\CALCUS\29-May-2022\0\\#p opt(modredund
 ant) AM1\\File created by ccinput\\0,1\C,3.9643823957,4.5849968107,-0.
 0027917765\H,5.6209562567,-0.100800362,0.0022252276\H,4.4712504605,4.7
 857169773,0.9375681618\H,4.4692527317,4.7829824893,-0.9448042606\H,2.9
 332581555,4.2411040847,-0.0011973523\\Version=ES64L-G16RevC.01\State=1
 -A\HF=-0.0129095,0.0309451,0.111647,0.1767351,0.221684,0.2502154,0.267
 9901,0.2796237,0.2877758,0.2938656,0.2986661\RMSD=3.237e-09,2.382e-10,
 8.053e-09,4.049e-09,8.944e-09,1.512e-09,7.681e-09,2.773e-09,2.034e-09,
 6.348e-09,5.558e-09\PG=C01 [X(C1H4)]\\@
 The archive entry for this job was punched.


 Once you get people laughing, they're
 listening and you can tell them almost anything.
                                 -- Herb Gardner
 Job cpu time:       0 days  0 hours  0 minutes 27.0 seconds.
 Elapsed time:       0 days  0 hours  0 minutes  7.0 seconds.
 File lengths (MBytes):  RWF=      6 Int=      0 D2E=      0 Chk=      2 Scr=      1
 Normal termination of Gaussian 16 at Sun May 29 14:24:39 2022.
