6
 energy: -9.740655674151 gnorm: 0.171321504152 xtb: 6.5.1 (579679a)
C           -0.72960000000000       -1.85620000000000        0.00000000000000
H           -0.19640000000000       -2.78390000000000        0.00000000000000
C           -0.05430000000000       -0.68120000000000        0.00000000000000
H           -0.58750000000000        0.24650000000000        0.00000000000000
H            1.01570000000000       -0.68120000000000        0.00000000000000
O           -2.15960000000000       -1.85620000000000        0.00000000000000
6
 energy: -9.762921405689 gnorm: 0.110887299558 xtb: 6.5.1 (579679a)
C           -0.75592811968995       -1.84799066283648       -0.00000000000000
H           -0.24116545661300       -2.79671266319867       -0.00000000000000
C           -0.06591402276862       -0.67332023615218       -0.00000000000000
H           -0.58932066941282        0.26503268790611       -0.00000000000000
H            1.00970555257079       -0.68601825251004        0.00000000000000
O           -2.06907728408639       -1.87319087320874        0.00000000000000
6
 energy: -9.762738182917 gnorm: 0.149150820971 xtb: 6.5.1 (579679a)
C           -0.81431135337564       -1.85432793307237        0.00000000000001
H           -0.27616795663995       -2.81473967141205       -0.00000000000000
C           -0.07049453070262       -0.66735507451863       -0.00000000000000
H           -0.58478526429715        0.27898797842329        0.00000000000000
H            1.00812367846338       -0.67193360895959       -0.00000000000001
O           -1.97406457344802       -1.88283169046065       -0.00000000000001
6
 energy: -9.769724872947 gnorm: 0.035006999917 xtb: 6.5.1 (579679a)
C           -0.79445201011795       -1.85333322209287       -0.00000000000002
H           -0.25134685676927       -2.80769216121791        0.00000000000001
C           -0.06129378866033       -0.66624509427124        0.00000000000000
H           -0.57757109217597        0.27866118453136       -0.00000000000000
H            1.01533679588828       -0.67371366350815        0.00000000000001
O           -2.04237304816476       -1.88987704344119        0.00000000000001
6
 energy: -9.770285075699 gnorm: 0.012899589713 xtb: 6.5.1 (579679a)
C           -0.80682171997625       -1.85479958035400       -0.00000000000444
H           -0.24499758893587       -2.80330344161727        0.00000000000133
C           -0.06107493714207       -0.66633701344489        0.00000000000554
H           -0.57382437634469        0.28080358473310       -0.00000000000154
H            1.01491917429313       -0.67621394479130       -0.00000000000174
O           -2.03990055189424       -1.89234960452564        0.00000000000084
6
 energy: -9.770404791747 gnorm: 0.002928976850 xtb: 6.5.1 (579679a)
C           -0.81691317013269       -1.85589845997932        0.00000000005512
H           -0.23662068356241       -2.79675191663441       -0.00000000001032
C           -0.06090783268015       -0.66642590274156       -0.00000000002163
H           -0.56960612983956        0.28310111809790        0.00000000001358
H            1.01405127114736       -0.68076165876818       -0.00000000001082
O           -2.04170345493256       -1.89546317997443       -0.00000000002592
6
 energy: -9.770411628169 gnorm: 0.001185181315 xtb: 6.5.1 (579679a)
C           -0.81787658477447       -1.85597079076853       -0.00000000055849
H           -0.23457483568348       -2.79474958541773        0.00000000003993
C           -0.06103771542723       -0.66624499633123       -0.00000000004435
H           -0.56846172298222        0.28391945620577       -0.00000000013933
H            1.01365776249793       -0.68252574055269        0.00000000032521
O           -2.04340690363053       -1.89662834313559        0.00000000037702
6
 energy: -9.770413015648 gnorm: 0.000690998651 xtb: 6.5.1 (579679a)
C           -0.81863363500355       -1.85604232636551        0.00000001538046
H           -0.23240842903834       -2.79241568935123       -0.00000000098157
C           -0.06158617519839       -0.66584938579513        0.00000000324362
H           -0.56707787542495        0.28520532140914        0.00000000343915
H            1.01289695416009       -0.68503647831480       -0.00000001017306
O           -2.04489083949485       -1.89806144158247       -0.00000001090860
6
 energy: -9.770413381945 gnorm: 0.000113988438 xtb: 6.5.1 (579679a)
C           -0.81840529254308       -1.85599781867967       -0.00000001913257
H           -0.23292631824591       -2.79286111644567       -0.00000001451887
C           -0.06168102947488       -0.66578244755666        0.00000000331551
H           -0.56720554757170        0.28522155646501       -0.00000002331016
H            1.01289962184602       -0.68480089785713        0.00000002693566
O           -2.04438143401045       -1.89797927592588        0.00000002671044
