1
 energy: -4.482525134961 gnorm: 0.000000000000 xtb: 6.4.1 (afa7bdf)
Cl        0.00000000000000    0.00000000000000    0.00000000000000
