6
 energy: -9.770413381952 gnorm: 0.000114485566 xtb: 6.5.1 (579679a)
C           -0.81840529254308       -1.85599781867967       -0.00000001913257
H           -0.23292631824591       -2.79286111644567       -0.00000001451887
C           -0.06168102947488       -0.66578244755666        0.00000000331551
H           -0.56720554757170        0.28522155646501       -0.00000002331016
H            1.01289962184602       -0.68480089785713        0.00000002693566
O           -2.04438143401045       -1.89797927592588        0.00000002671044
