
                                 *****************
                                 * O   R   C   A *
                                 *****************

                                            #,                                       
                                            ###                                      
                                            ####                                     
                                            #####                                    
                                            ######                                   
                                           ########,                                 
                                     ,,################,,,,,                         
                               ,,#################################,,                 
                          ,,##########################################,,             
                       ,#########################################, ''#####,          
                    ,#############################################,,   '####,        
                  ,##################################################,,,,####,       
                ,###########''''           ''''###############################       
              ,#####''   ,,,,##########,,,,          '''####'''          '####       
            ,##' ,,,,###########################,,,                        '##       
           ' ,,###''''                  '''############,,,                           
         ,,##''                                '''############,,,,        ,,,,,,###''
      ,#''                                            '''#######################'''  
     '                                                          ''''####''''         
             ,#######,   #######,   ,#######,      ##                                
            ,#'     '#,  ##    ##  ,#'     '#,    #''#        ######   ,####,        
            ##       ##  ##   ,#'  ##            #'  '#       #        #'  '#        
            ##       ##  #######   ##           ,######,      #####,   #    #        
            '#,     ,#'  ##    ##  '#,     ,#' ,#      #,         ##   #,  ,#        
             '#######'   ##     ##  '#######'  #'      '#     #####' # '####'        



                  #######################################################
                  #                        -***-                        #
                  #          Department of theory and spectroscopy      #
                  #    Directorship and core code : Frank Neese         #
                  #        Max Planck Institute fuer Kohlenforschung    #
                  #                Kaiser Wilhelm Platz 1               #
                  #                 D-45470 Muelheim/Ruhr               #
                  #                      Germany                        #
                  #                                                     #
                  #                  All rights reserved                #
                  #                        -***-                        #
                  #######################################################


                         Program Version 5.0.3 -  RELEASE  -


 With contributions from (in alphabetic order):
   Daniel Aravena         : Magnetic Suceptibility
   Michael Atanasov       : Ab Initio Ligand Field Theory (pilot matlab implementation)
   Alexander A. Auer      : GIAO ZORA, VPT2 properties, NMR spectrum
   Ute Becker             : Parallelization
   Giovanni Bistoni       : ED, misc. LED, open-shell LED, HFLD
   Martin Brehm           : Molecular dynamics
   Dmytro Bykov           : SCF Hessian
   Vijay G. Chilkuri      : MRCI spin determinant printing, contributions to CSF-ICE
   Dipayan Datta          : RHF DLPNO-CCSD density
   Achintya Kumar Dutta   : EOM-CC, STEOM-CC
   Dmitry Ganyushin       : Spin-Orbit,Spin-Spin,Magnetic field MRCI
   Miquel Garcia          : C-PCM and meta-GGA Hessian, CC/C-PCM, Gaussian charge scheme
   Yang Guo               : DLPNO-NEVPT2, F12-NEVPT2, CIM, IAO-localization
   Andreas Hansen         : Spin unrestricted coupled pair/coupled cluster methods
   Benjamin Helmich-Paris : MC-RPA, TRAH-SCF, COSX integrals
   Lee Huntington         : MR-EOM, pCC
   Robert Izsak           : Overlap fitted RIJCOSX, COSX-SCS-MP3, EOM
   Marcus Kettner         : VPT2
   Christian Kollmar      : KDIIS, OOCD, Brueckner-CCSD(T), CCSD density, CASPT2, CASPT2-K
   Simone Kossmann        : Meta GGA functionals, TD-DFT gradient, OOMP2, MP2 Hessian
   Martin Krupicka        : Initial AUTO-CI
   Lucas Lang             : DCDCAS
   Marvin Lechner         : AUTO-CI (C++ implementation), FIC-MRCC
   Dagmar Lenk            : GEPOL surface, SMD
   Dimitrios Liakos       : Extrapolation schemes; Compound Job, initial MDCI parallelization
   Dimitrios Manganas     : Further ROCIS development; embedding schemes
   Dimitrios Pantazis     : SARC Basis sets
   Anastasios Papadopoulos: AUTO-CI, single reference methods and gradients
   Taras Petrenko         : DFT Hessian,TD-DFT gradient, ASA, ECA, R-Raman, ABS, FL, XAS/XES, NRVS
   Peter Pinski           : DLPNO-MP2, DLPNO-MP2 Gradient
   Christoph Reimann      : Effective Core Potentials
   Marius Retegan         : Local ZFS, SOC
   Christoph Riplinger    : Optimizer, TS searches, QM/MM, DLPNO-CCSD(T), (RO)-DLPNO pert. Triples
   Tobias Risthaus        : Range-separated hybrids, TD-DFT gradient, RPA, STAB
   Michael Roemelt        : Original ROCIS implementation
   Masaaki Saitow         : Open-shell DLPNO-CCSD energy and density
   Barbara Sandhoefer     : DKH picture change effects
   Avijit Sen             : IP-ROCIS
   Kantharuban Sivalingam : CASSCF convergence, NEVPT2, FIC-MRCI
   Bernardo de Souza      : ESD, SOC TD-DFT
   Georgi Stoychev        : AutoAux, RI-MP2 NMR, DLPNO-MP2 response
   Willem Van den Heuvel  : Paramagnetic NMR
   Boris Wezisla          : Elementary symmetry handling
   Frank Wennmohs         : Technical directorship


 We gratefully acknowledge several colleagues who have allowed us to
 interface, adapt or use parts of their codes:
   Stefan Grimme, W. Hujo, H. Kruse, P. Pracht,  : VdW corrections, initial TS optimization,
                  C. Bannwarth, S. Ehlert          DFT functionals, gCP, sTDA/sTD-DF
   Ed Valeev, F. Pavosevic, A. Kumar             : LibInt (2-el integral package), F12 methods
   Garnet Chan, S. Sharma, J. Yang, R. Olivares  : DMRG
   Ulf Ekstrom                                   : XCFun DFT Library
   Mihaly Kallay                                 : mrcc  (arbitrary order and MRCC methods)
   Jiri Pittner, Ondrej Demel                    : Mk-CCSD
   Frank Weinhold                                : gennbo (NPA and NBO analysis)
   Christopher J. Cramer and Donald G. Truhlar   : smd solvation model
   Lars Goerigk                                  : TD-DFT with DH, B97 family of functionals
   V. Asgeirsson, H. Jonsson                     : NEB implementation
   FAccTs GmbH                                   : IRC, NEB, NEB-TS, DLPNO-Multilevel, CI-OPT
                                                   MM, QMMM, 2- and 3-layer-ONIOM, Crystal-QMMM,
                                                   LR-CPCM, SF, NACMEs, symmetry and pop. for TD-DFT,
                                                   nearIR, NL-DFT gradient (VV10), updates on ESD,
                                                   ML-optimized integration grids
   S Lehtola, MJT Oliveira, MAL Marques          : LibXC Library
   Liviu Ungur et al                             : ANISO software


 Your calculation uses the libint2 library for the computation of 2-el integrals
 For citations please refer to: http://libint.valeyev.net

 Your ORCA version has been built with support for libXC version: 5.1.0
 For citations please refer to: https://tddft.org/programs/libxc/

 This ORCA versions uses:
   CBLAS   interface :  Fast vector & matrix operations
   LAPACKE interface :  Fast linear algebra routines
   SCALAPACK package :  Parallel linear algebra routines
   Shared memory     :  Shared parallel matrices
   BLAS/LAPACK       :  OpenBLAS 0.3.15  USE64BITINT DYNAMIC_ARCH NO_AFFINITY Zen SINGLE_THREADED
        Core in use  :  Zen
   Copyright (c) 2011-2014, The OpenBLAS Project


leaving
================================================================================

----- Orbital basis set information -----
================================================================================
                                        WARNINGS
                       Please study these warnings very carefully!
================================================================================


WARNING: Direct SCF is incompatible with Method<>HF and Method<>DFT
  ===> : conventional SCF is chosen

WARNING: The NDO methods need Guess=HUECKEL or Guess=HCORE or Guess=MOREAD
  ===> : Guess is set to Hueckel

WARNING: The NDO methods need %rel::SOCType==1
  ===> : %rel::SOCType is set to 1

WARNING: The NDO methods cannot have frozencore=1
  ===> : %method FrozenCore=0 end

WARNING: The NDO methods cannot be used with Shark
  ===> : Turning Shark off

WARNING: Geometry Optimization
  ===> : Switching off AutoStart
         For restart on a previous wavefunction, please use MOREAD
================================================================================
                                       INPUT FILE
================================================================================
NAME = calc.inp
|  1> !OPT AM1
|  2> *xyz 0 1
|  3> C    4.29180000   3.65880000   0.00000000
|  4> H    4.64850000   2.65000000   0.00000000
|  5> H    4.64850000   4.16320000   0.87070000
|  6> H    4.64850000   4.16320000  -0.87970000
|  7> H    3.22180000   3.65880000   0.00000000
|  8> *
|  9> %geom Constraints
| 10> { D 0 1 2 3 C }
| 11> end
| 12> end
| 13> %MaxCore 2000
| 14> %pal
| 15> nprocs 1
| 16> endd                         ****END OF INPUT****
================================================================================

                       *****************************
                       * Geometry Optimization Run *
                       *****************************

Geometry optimization settings:
Update method            Update   .... BFGS
Choice of coordinates    CoordSys .... Z-matrix Internals
Initial Hessian          InHess   .... Almoef's Model

Convergence Tolerances:
Energy Change            TolE     ....  5.0000e-06 Eh
Max. Gradient            TolMAXG  ....  3.0000e-04 Eh/bohr
RMS Gradient             TolRMSG  ....  1.0000e-04 Eh/bohr
Max. Displacement        TolMAXD  ....  4.0000e-03 bohr
RMS Displacement         TolRMSD  ....  2.0000e-03 bohr
Strict Convergence                ....  False
------------------------------------------------------------------------------
                        ORCA OPTIMIZATION COORDINATE SETUP
------------------------------------------------------------------------------

The optimization will be done in new redundant internal coordinates
Making redundant internal coordinates   ...  (new redundants) done
Evaluating the initial hessian          ...  (Almloef) done
Evaluating the coordinates              ...  done
Calculating the B-matrix                .... done
Calculating the G-matrix                .... done
Diagonalizing the G-matrix              .... done
Imposing constraints:
 Iter   0:  RMS(Cart)=    0.0000000000 RMS(Int)=    0.0000000000
CONVERGED
The first mode is                       ....    2
The number of degrees of freedom        ....    9
Storing new coordinates                 .... done

    -----------------------------------------------------------------
                    Redundant Internal Coordinates


    -----------------------------------------------------------------
         Definition                    Initial Value    Approx d2E/dq
    -----------------------------------------------------------------
      1. B(H   1,C   0)                  1.0700         0.387545   
      2. B(H   2,C   0)                  1.0676         0.390984   
      3. B(H   3,C   0)                  1.0750         0.380564   
      4. B(H   4,C   0)                  1.0700         0.387554   
      5. A(H   2,C   0,H   3)          109.5644         0.297222   
      6. A(H   1,C   0,H   4)          109.4730         0.297664   
      7. A(H   2,C   0,H   4)          109.5186         0.298082   
      8. A(H   3,C   0,H   4)          109.3798         0.296808   
      9. A(H   1,C   0,H   2)          109.5151         0.298081   
     10. A(H   1,C   0,H   3)          109.3762         0.296807   
     11. D(H   3,H   2,H   1,C   0)    -35.3356         0.001712 C 
    -----------------------------------------------------------------

Number of atoms                         .... 5
Number of degrees of freedom            .... 11

         *************************************************************
         *                GEOMETRY OPTIMIZATION CYCLE   1            *
         *************************************************************
---------------------------------
CARTESIAN COORDINATES (ANGSTROEM)
---------------------------------
  C      4.291800    3.658800    0.000000
  H      4.648500    2.650000    0.000000
  H      4.648500    4.163200    0.870700
  H      4.648500    4.163200   -0.879700
  H      3.221800    3.658800    0.000000

----------------------------
CARTESIAN COORDINATES (A.U.)
----------------------------
  NO LB      ZA    FRAG     MASS         X           Y           Z
   0 C     4.0000    0    12.011    8.110327    6.914130    0.000000
   1 H     1.0000    0     1.008    8.784392    5.007774    0.000000
   2 H     1.0000    0     1.008    8.784392    7.867308    1.645385
   3 H     1.0000    0     1.008    8.784392    7.867308   -1.662392
   4 H     1.0000    0     1.008    6.088320    6.914130    0.000000

--------------------------------
INTERNAL COORDINATES (ANGSTROEM)
--------------------------------
 C      0   0   0     0.000000000000     0.00000000     0.00000000
 H      1   0   0     1.070005761667     0.00000000     0.00000000
 H      1   2   0     1.067601395653   109.51505982     0.00000000
 H      1   2   3     1.074954110648   109.37622264   120.08276913
 H      1   2   3     1.070000000000   109.47300474   239.91392657

---------------------------
INTERNAL COORDINATES (A.U.)
---------------------------
 C      0   0   0     0.000000000000     0.00000000     0.00000000
 H      1   0   0     2.022017851268     0.00000000     0.00000000
 H      1   2   0     2.017474257976   109.51505982     0.00000000
 H      1   2   3     2.031368875658   109.37622264   120.08276913
 H      1   2   3     2.022006963296   109.47300474   239.91392657

----------------------------
SLATER BASIS SET DIM=   8
----------------------------
  0 C     2 shells
 l=0 nsto= 1
    2       1.808665000000        1.000000000000
 l=1 nsto= 1
    2       1.685116000000        1.000000000000
  1 H     1 shells
 l=0 nsto= 1
    1       1.188078000000        1.000000000000
  2 H     1 shells
 l=0 nsto= 1
    1       1.188078000000        1.000000000000
  3 H     1 shells
 l=0 nsto= 1
    1       1.188078000000        1.000000000000
  4 H     1 shells
 l=0 nsto= 1
    1       1.188078000000        1.000000000000
------------------------------------------------------------------------------
                           ORCA NDO INTEGRAL CALCULATION
------------------------------------------------------------------------------

--------------
NDO PARAMETERS
--------------

Gamma integral treatment              ... MOPAC
Nuclear repulsuion treatment          ... AM1-style
Interaction factors:
s-s (sigma) =    1.0000
s-p (sigma) =    1.0000
s-d (sigma) =    1.0000
p-p (sigma) =    1.0000  p-p(pi) =    1.0000
p-d (sigma) =    1.0000  p-d(pi) =    1.0000
d-d (sigma) =    1.0000  d-d(pi) =    1.0000 d-d (delta) =    1.0000

--------------------------
Parameters for Element H :
--------------------------
 One-electron parameters (in eV)
  U(s)  =   -11.396427 Beta(s) =     6.173787 Neff(s) =     1.000000
 One-center electron repulsion parameters (in eV)
  G(s,s)=    12.848000
--------------------------
Parameters for Element C :
--------------------------
 One-electron parameters (in eV)
  U(s)  =   -52.028658 Beta(s) =    15.715783 Neff(s) =     2.000000
  U(p)  =   -39.614239 Beta(p) =     7.719283 Neff(p) =     2.000000 
 One-center electron repulsion parameters (in eV)
  G(s,s)=    12.230000
  G(s,p)=    11.470000 G(p,p)  =    10.253300
 Slater-Condon parameters (in eV)
 F2(p,p)=     5.1667 G1(s,p)=    7.2900

 Number of atoms                    ....    5
 Number of basis functions          ....    8

 Overlap integrals                  .... done
 One electron matrix                .... done
 Nuclear repulsion                  .... done
 Integral list                      .... done
 Electron-electron repulsion        .... done
-------------------------------------------------------------------------------
                                 ORCA SCF
-------------------------------------------------------------------------------

------------
SCF SETTINGS
------------
Hamiltonian:
 ZDO-Hamiltonian        Method          .... NDDO


General Settings:
 Integral files         IntName         .... calc
 Hartree-Fock type      HFTyp           .... RHF
 Total Charge           Charge          ....    0
 Multiplicity           Mult            ....    1
 Number of Electrons    NEL             ....    8
 Basis Dimension        Dim             ....    8
 Nuclear Repulsion      ENuc            ....      7.5706013709 Eh

Convergence Acceleration:
 DIIS                   CNVDIIS         .... on
   Start iteration      DIISMaxIt       ....    12
   Startup error        DIISStart       ....  0.200000
   # of expansion vecs  DIISMaxEq       ....     5
   Bias factor          DIISBfac        ....   1.050
   Max. coefficient     DIISMaxC        ....  10.000
 Trust-Rad. Augm. Hess. CNVTRAH         .... off
 SOSCF                  CNVSOSCF        .... on
   Start iteration      SOSCFMaxIt      ....   150
   Startup grad/error   SOSCFStart      ....  0.003300
 Level Shifting         CNVShift        .... on
   Level shift para.    LevelShift      ....    0.2500
   Turn off err/grad.   ShiftErr        ....    0.0010
 Zerner damping         CNVZerner       .... off
 Static damping         CNVDamp         .... on
   Fraction old density DampFac         ....    0.7000
   Max. Damping (<1)    DampMax         ....    0.9800
   Min. Damping (>=0)   DampMin         ....    0.0000
   Turn off err/grad.   DampErr         ....    0.1000
 Fernandez-Rico         CNVRico         .... off

SCF Procedure:
 Maximum # iterations   MaxIter         ....   125
 SCF integral mode      SCFMode         .... Conventional
 Integral Buffer length BufferLength    .... 1048576
 Integral index format  IndFormat       ....     0
 Integral value format  ValFormat       ....     0
 Integral Storage       Thresh          ....  2.500e-11 Eh

Convergence Tolerance:
 Convergence Check Mode ConvCheckMode   .... Total+1el-Energy
 Convergence forced     ConvForced      .... 0
 Energy Change          TolE            ....  1.000e-08 Eh
 1-El. energy change                    ....  1.000e-05 Eh
 Orbital Gradient       TolG            ....  1.000e-05
 Orbital Rotation angle TolX            ....  1.000e-05
 DIIS Error             TolErr          ....  5.000e-07


Diagonalization of the overlap matrix:
Smallest eigenvalue                        ... 2.565e-01
Time for diagonalization                   ...    0.000 sec
Threshold for overlap eigenvalues          ... 1.000e-08
Number of eigenvalues below threshold      ... 0
Time for construction of square roots      ...    0.000 sec
Total time needed                          ...    0.000 sec

-------------------------------
INITIAL GUESS: EXTENDED HUECKEL
-------------------------------
EHT matrix was read from disk
EHT matrix was diagonalized
Initial density was built
                      ------------------
                      INITIAL GUESS DONE
                      ------------------

 InCore treatment chosen:
   Memory dedicated               ...    2000 MB
   Memory needed                  ...      0 MB
   Number of tiny    integrals    ...       0
   Number of small   integrals    ...       0
   Number of regular integrals    ...      58

--------------
SCF ITERATIONS
--------------
ITER       Energy         Delta-E        Max-DP      RMS-DP      [F,P]     Damp
  0     -6.7113951659   0.000000000000 0.01783743  0.00582283  0.0475720 0.7000
  1     -6.7142778584  -0.002882692566 0.01930579  0.00610029  0.0424045 0.7000
                               ***Turning on DIIS***
  2     -6.7169753818  -0.002697523330 0.05829302  0.01804226  0.0368045 0.0000
  3     -6.7079878095   0.008987572307 0.03785131  0.01100818  0.0198894 0.0000
  4     -6.7188114434  -0.010823633985 0.01833393  0.00515916  0.0088511 0.0000
  5     -6.7242003268  -0.005388883331 0.00809716  0.00225350  0.0034820 0.0000
                      *** Initiating the SOSCF procedure ***
                           *** Shutting down DIIS ***
                      *** Re-Reading the Fockian *** 
                      *** Removing any level shift *** 
ITER      Energy       Delta-E        Grad      Rot      Max-DP    RMS-DP
  6     -6.72712997  -0.0029296421  0.001240  0.001240  0.002685  0.000746
  7     -6.72854494  -0.0014149705  0.000182  0.000271  0.000539  0.000149
  8     -6.72854538  -0.0000004432  0.000090  0.000264  0.000527  0.000147
  9     -6.72854553  -0.0000001425  0.000008  0.000006  0.000013  0.000002
                 **** Energy Check signals convergence ****
              ***Rediagonalizing the Fockian in SOSCF/NRSCF***

               *****************************************************
               *                     SUCCESS                       *
               *           SCF CONVERGED AFTER  10 CYCLES          *
               *****************************************************


----------------
TOTAL SCF ENERGY
----------------

Total Energy       :           -6.72854553 Eh            -183.09303 eV

Components:
Nuclear Repulsion  :            7.57060137 Eh             206.00654 eV
Electronic Energy  :          -14.29914690 Eh            -389.09957 eV
One Electron Energy:          -23.43467003 Eh            -637.68979 eV
Two Electron Energy:            9.13552313 Eh             248.59022 eV


---------------
SCF CONVERGENCE
---------------

  Last Energy change         ...   -1.3899e-10  Tolerance :   1.0000e-08
  Last MAX-Density change    ...    3.9385e-06  Tolerance :   1.0000e-07
  Last RMS-Density change    ...    6.1575e-07  Tolerance :   5.0000e-09
  Last Orbital Gradient      ...    2.0066e-06  Tolerance :   1.0000e-05
  Last Orbital Rotation      ...    2.0130e-06  Tolerance :   1.0000e-05

             **** THE GBW FILE WAS UPDATED (calc.gbw) ****
             **** DENSITY calc.scfp WAS UPDATED ****
             **** ENERGY FILE WAS UPDATED (calc.en.tmp) ****
             **** THE GBW FILE WAS UPDATED (calc.gbw) ****
             **** DENSITY calc.scfp WAS UPDATED ****
----------------
ORBITAL ENERGIES
----------------

  NO   OCC          E(Eh)            E(eV) 
   0   2.0000      -1.091339       -29.6968 
   1   2.0000      -0.497324       -13.5329 
   2   2.0000      -0.496925       -13.5220 
   3   2.0000      -0.496225       -13.5030 
   4   0.0000       0.176392         4.7999 
   5   0.0000       0.177123         4.8198 
   6   0.0000       0.177508         4.8302 
   7   0.0000       0.203336         5.5331 

                    ********************************
                    * MULLIKEN POPULATION ANALYSIS *
                    ********************************

-----------------------
MULLIKEN ATOMIC CHARGES
-----------------------
   0 C :   -0.435828
   1 H :    0.108955
   2 H :    0.109545
   3 H :    0.108362
   4 H :    0.108966
Sum of atomic charges:    0.0000000

--------------------------------
MULLIKEN REDUCED ORBITAL CHARGES
--------------------------------
  0 C s       :     1.516085  s :     1.516085
      pz      :     0.973211  p :     2.919743
      px      :     0.973218
      py      :     0.973314
  1 H s       :     0.891045  s :     0.891045
  2 H s       :     0.890455  s :     0.890455
  3 H s       :     0.891638  s :     0.891638
  4 H s       :     0.891034  s :     0.891034


                     *******************************
                     * LOEWDIN POPULATION ANALYSIS *
                     *******************************

----------------------
LOEWDIN ATOMIC CHARGES
----------------------
   0 C :   -0.258386
   1 H :    0.064525
   2 H :    0.064754
   3 H :    0.064574
   4 H :    0.064533

-------------------------------
LOEWDIN REDUCED ORBITAL CHARGES
-------------------------------
  0 C s       :     1.206748  s :     1.206748
      pz      :     1.017046  p :     3.051637
      px      :     1.017267
      py      :     1.017324
  1 H s       :     0.935475  s :     0.935475
  2 H s       :     0.935246  s :     0.935246
  3 H s       :     0.935426  s :     0.935426
  4 H s       :     0.935467  s :     0.935467


                      *****************************
                      * MAYER POPULATION ANALYSIS *
                      *****************************

  NA   - Mulliken gross atomic population
  ZA   - Total nuclear charge
  QA   - Mulliken gross atomic charge
  VA   - Mayer's total valence
  BVA  - Mayer's bonded valence
  FA   - Mayer's free valence

  ATOM       NA         ZA         QA         VA         BVA        FA
  0 C      6.8940     4.0000    -2.8940     1.6247    11.2106    -9.5859
  1 H      1.5665     1.0000    -0.5665     0.6790     2.9569    -2.2778
  2 H      1.5678     1.0000    -0.5678     0.6777     2.9618    -2.2842
  3 H      1.5635     1.0000    -0.5635     0.6825     2.9444    -2.2619
  4 H      1.5665     1.0000    -0.5665     0.6791     2.9568    -2.2778

  Mayer bond orders larger than 0.100000
B(  0-C ,  1-H ) :   2.8041 B(  0-C ,  2-H ) :   2.8091 B(  0-C ,  3-H ) :   2.7932 
B(  0-C ,  4-H ) :   2.8041 

-------
TIMINGS
-------

Total SCF time: 0 days 0 hours 0 min 0 sec 

Total time                  ....       0.107 sec
Sum of individual times     ....       0.008 sec  (  7.5%)

Fock matrix formation       ....       0.007 sec  (  6.7%)
Diagonalization             ....       0.000 sec  (  0.1%)
Density matrix formation    ....       0.000 sec  (  0.0%)
Population analysis         ....       0.000 sec  (  0.3%)
Initial guess               ....       0.000 sec  (  0.1%)
Orbital Transformation      ....       0.000 sec  (  0.0%)
Orbital Orthonormalization  ....       0.000 sec  (  0.0%)
DIIS solution               ....       0.000 sec  (  0.1%)
SOSCF solution              ....       0.000 sec  (  0.1%)

Maximum memory used throughout the entire SCF-calculation: 222.8 MB

-------------------------   --------------------
FINAL SINGLE POINT ENERGY        -6.728545525246
-------------------------   --------------------

------------------------------------------------------------------------------
                          SCF GRADIENT FOR NDO METHODS
------------------------------------------------------------------------------

The cartesian gradient:
   1   C   :   -0.000535165   -0.000729476    0.004257772
   2   H   :   -0.011379021    0.032134666    0.000037727
   3   H   :   -0.012046176   -0.017041728   -0.029094061
   4   H   :   -0.010134351   -0.014338109    0.024760848
   5   H   :    0.034094713   -0.000025352    0.000037714

Norm of the cartesian gradient     ...    0.067430707
RMS gradient                       ...    0.017410534
MAX gradient                       ...    0.034094713
------------------------------------------------------------------------------
                         ORCA GEOMETRY RELAXATION STEP
------------------------------------------------------------------------------

Reading the OPT-File                    .... done
Getting information on internals        .... done
Copying old internal coords+grads       .... done
Making the new internal coordinates     .... (new redundants).... done
Validating the new internal coordinates .... (new redundants).... done
Calculating the B-matrix                .... done
Calculating the G,G- and P matrices     .... done
Transforming gradient to internals      .... done
Projecting the internal gradient        .... done
Number of atoms                         ....   5
Number of internal coordinates          ....  11
Current Energy                          ....    -6.728545525 Eh
Current gradient norm                   ....     0.067430707 Eh/bohr
Maximum allowed component of the step   ....  0.300
Current trust radius                    ....  0.300
Evaluating the initial hessian          ....  (Almloef) done
Projecting the Hessian                  .... done
Forming the augmented Hessian           .... done
Diagonalizing the augmented Hessian     .... done
Last element of RFO vector              ....  0.986034950
Lowest eigenvalues of augmented Hessian:
 -0.011364391  0.297012578  0.297103454  0.297838437  0.298061394
Length of the computed step             ....  0.168897173
The final length of the internal step   ....  0.168897173
Converting the step to cartesian space:
 Initial RMS(Int)=    0.0509244137
Transforming coordinates:
 Iter   0:  RMS(Cart)=    0.0436019213 RMS(Int)=    0.0509244089
 Iter   1:  RMS(Cart)=    0.0000144173 RMS(Int)=    0.0000179360
 Iter   2:  RMS(Cart)=    0.0000005752 RMS(Int)=    0.0000007346
 Iter   3:  RMS(Cart)=    0.0000000236 RMS(Int)=    0.0000000302
Imposing constraints:
 Iter   0:  RMS(Cart)=    0.0000033146 RMS(Int)=    0.0000181003
 Iter   1:  RMS(Cart)=    0.0000021664 RMS(Int)=    0.0000118302
 Iter   2:  RMS(Cart)=    0.0000014159 RMS(Int)=    0.0000077321
 Iter   3:  RMS(Cart)=    0.0000009254 RMS(Int)=    0.0000050536
 Iter   4:  RMS(Cart)=    0.0000006049 RMS(Int)=    0.0000033030
 Iter   5:  RMS(Cart)=    0.0000003953 RMS(Int)=    0.0000021588
 Iter   6:  RMS(Cart)=    0.0000002584 RMS(Int)=    0.0000014110
 Iter   7:  RMS(Cart)=    0.0000001689 RMS(Int)=    0.0000009222
 Iter   8:  RMS(Cart)=    0.0000001104 RMS(Int)=    0.0000006027
 Iter   9:  RMS(Cart)=    0.0000000721 RMS(Int)=    0.0000003939
 Iter  10:  RMS(Cart)=    0.0000000472 RMS(Int)=    0.0000002575
 Iter  11:  RMS(Cart)=    0.0000000308 RMS(Int)=    0.0000001683
 Iter  12:  RMS(Cart)=    0.0000000201 RMS(Int)=    0.0000001100
 Iter  13:  RMS(Cart)=    0.0000000132 RMS(Int)=    0.0000000719
CONVERGED
done
Storing new coordinates                 .... done

                                .--------------------.
          ----------------------|Geometry convergence|-------------------------
          Item                value                   Tolerance       Converged
          ---------------------------------------------------------------------
          RMS gradient        0.0202882171            0.0001000000      NO
          MAX gradient        0.0357642293            0.0003000000      NO
          RMS step            0.0509244137            0.0020000000      NO
          MAX step            0.0889364524            0.0040000000      NO
          ........................................................
          Max(Bonds)      0.0471      Max(Angles)    0.08
          Max(Dihed)        0.00      Max(Improp)    0.00
          ---------------------------------------------------------------------

The optimization has not yet converged - more geometry cycles are needed


    ---------------------------------------------------------------------------
                         Redundant Internal Coordinates
                            (Angstroem and degrees)

        Definition                    Value    dE/dq     Step     New-Value
    ----------------------------------------------------------------------------
     1. B(H   1,C   0)                1.0700 -0.034075  0.0452    1.1152   
     2. B(H   2,C   0)                1.0676 -0.035790  0.0471    1.1147   
     3. B(H   3,C   0)                1.0750 -0.030383  0.0410    1.1160   
     4. B(H   4,C   0)                1.0700 -0.034095  0.0452    1.1152   
     5. A(H   2,C   0,H   3)          109.56  0.000384   -0.08    109.48   
     6. A(H   1,C   0,H   4)          109.47 -0.000152    0.03    109.51   
     7. A(H   2,C   0,H   4)          109.52 -0.000149    0.03    109.55   
     8. A(H   3,C   0,H   4)          109.38 -0.000060    0.02    109.40   
     9. A(H   1,C   0,H   2)          109.52 -0.000119    0.02    109.54   
    10. A(H   1,C   0,H   3)          109.38  0.000095   -0.03    109.35   
    11. D(H   3,H   2,H   1,C   0)    -35.34 -0.000250   -0.00    -35.34 C 
    ----------------------------------------------------------------------------

         *************************************************************
         *                GEOMETRY OPTIMIZATION CYCLE   2            *
         *************************************************************
---------------------------------
CARTESIAN COORDINATES (ANGSTROEM)
---------------------------------
  C      4.291673    3.658800   -0.000815
  H      4.663846    2.607532   -0.001175
  H      4.664624    4.185982    0.907738
  H      4.662511    4.182689   -0.913751
  H      3.176446    3.658997   -0.000997

----------------------------
CARTESIAN COORDINATES (A.U.)
----------------------------
  NO LB      ZA    FRAG     MASS         X           Y           Z
   0 C     4.0000    0    12.011    8.110087    6.914129   -0.001540
   1 H     1.0000    0     1.008    8.813392    4.927521   -0.002221
   2 H     1.0000    0     1.008    8.814861    7.910360    1.715376
   3 H     1.0000    0     1.008    8.810869    7.904137   -1.726739
   4 H     1.0000    0     1.008    6.002612    6.914502   -0.001884

--------------------------------
INTERNAL COORDINATES (ANGSTROEM)
--------------------------------
 C      0   0   0     0.000000000000     0.00000000     0.00000000
 H      1   0   0     1.115202470667     0.00000000     0.00000000
 H      1   2   0     1.114666950642   109.53848404     0.00000000
 H      1   2   3     1.115989440457   109.35174634   119.98640714
 H      1   2   3     1.115227696983   109.50526919   239.84086859

---------------------------
INTERNAL COORDINATES (A.U.)
---------------------------
 C      0   0   0     0.000000000000     0.00000000     0.00000000
 H      1   0   0     2.107427253432     0.00000000     0.00000000
 H      1   2   0     2.106415267247   109.53848404     0.00000000
 H      1   2   3     2.108914410811   109.35174634   119.98640714
 H      1   2   3     2.107474924261   109.50526919   239.84086859

------------------------------------------------------------------------------
                           ORCA NDO INTEGRAL CALCULATION
------------------------------------------------------------------------------

--------------
NDO PARAMETERS
--------------

Gamma integral treatment              ... MOPAC
Nuclear repulsuion treatment          ... AM1-style
Interaction factors:
s-s (sigma) =    1.0000
s-p (sigma) =    1.0000
s-d (sigma) =    1.0000
p-p (sigma) =    1.0000  p-p(pi) =    1.0000
p-d (sigma) =    1.0000  p-d(pi) =    1.0000
d-d (sigma) =    1.0000  d-d(pi) =    1.0000 d-d (delta) =    1.0000

--------------------------
Parameters for Element H :
--------------------------
 One-electron parameters (in eV)
  U(s)  =   -11.396427 Beta(s) =     6.173787 Neff(s) =     1.000000
 One-center electron repulsion parameters (in eV)
  G(s,s)=    12.848000
--------------------------
Parameters for Element C :
--------------------------
 One-electron parameters (in eV)
  U(s)  =   -52.028658 Beta(s) =    15.715783 Neff(s) =     2.000000
  U(p)  =   -39.614239 Beta(p) =     7.719283 Neff(p) =     2.000000 
 One-center electron repulsion parameters (in eV)
  G(s,s)=    12.230000
  G(s,p)=    11.470000 G(p,p)  =    10.253300
 Slater-Condon parameters (in eV)
 F2(p,p)=     5.1667 G1(s,p)=    7.2900

 Number of atoms                    ....    5
 Number of basis functions          ....    8

 Overlap integrals                  .... done
 One electron matrix                .... done
 Nuclear repulsion                  .... done
 Integral list                      .... done
 Electron-electron repulsion        .... done

Diagonalization of the overlap matrix:
Smallest eigenvalue                        ... 2.847e-01
Time for diagonalization                   ...    0.000 sec
Threshold for overlap eigenvalues          ... 1.000e-08
Number of eigenvalues below threshold      ... 0
Time for construction of square roots      ...    0.000 sec
Total time needed                          ...    0.000 sec


 InCore treatment chosen:
   Memory dedicated               ...    2000 MB
   Memory needed                  ...      0 MB
   Number of tiny    integrals    ...       0
   Number of small   integrals    ...       1
   Number of regular integrals    ...      65

--------------
SCF ITERATIONS
--------------
ITER       Energy         Delta-E        Max-DP      RMS-DP      [F,P]     Damp
  0     -6.7332237813   0.000000000000 0.00489463  0.00074654  0.0128573 0.7000
                      *** Initiating the SOSCF procedure ***
                      *** Re-Reading the Fockian *** 
                      *** Removing any level shift *** 
ITER      Energy       Delta-E        Grad      Rot      Max-DP    RMS-DP
  1     -6.73330338  -0.0000795957  0.002807  0.002807  0.015072  0.002313
  2     -6.73354838  -0.0002450016  0.002684  0.002150  0.004186  0.000714
  3     -6.73356571  -0.0000173309  0.000619  0.000713  0.001387  0.000327
  4     -6.73356738  -0.0000016739  0.000066  0.000126  0.000250  0.000070
  5     -6.73356745  -0.0000000694  0.000047  0.000067  0.000134  0.000041
  6     -6.73356747  -0.0000000134  0.000003  0.000003  0.000006  0.000001
                 **** Energy Check signals convergence ****
              ***Rediagonalizing the Fockian in SOSCF/NRSCF***

               *****************************************************
               *                     SUCCESS                       *
               *           SCF CONVERGED AFTER   7 CYCLES          *
               *****************************************************

Total Energy       :           -6.73356747 Eh            -183.22969 eV
  Last Energy change         ...   -2.0774e-11  Tolerance :   1.0000e-08
  Last MAX-Density change    ...    3.4845e-07  Tolerance :   1.0000e-07
             **** THE GBW FILE WAS UPDATED (calc.gbw) ****
             **** DENSITY calc.scfp WAS UPDATED ****
             **** ENERGY FILE WAS UPDATED (calc.en.tmp) ****
             **** THE GBW FILE WAS UPDATED (calc.gbw) ****
             **** DENSITY calc.scfp WAS UPDATED ****
Total SCF time: 0 days 0 hours 0 min 0 sec 

Maximum memory used throughout the entire SCF-calculation: 222.8 MB

-------------------------   --------------------
FINAL SINGLE POINT ENERGY        -6.733567466228
-------------------------   --------------------

------------------------------------------------------------------------------
                          SCF GRADIENT FOR NDO METHODS
------------------------------------------------------------------------------

The cartesian gradient:
   1   C   :   -0.000101219   -0.000065062    0.000903886
   2   H   :    0.000935001   -0.002456302   -0.000150063
   3   H   :    0.000838706    0.001159113    0.001915344
   4   H   :    0.000995293    0.001336057   -0.002544759
   5   H   :   -0.002667780    0.000026194   -0.000124409

Norm of the cartesian gradient     ...    0.005464599
RMS gradient                       ...    0.001410953
MAX gradient                       ...    0.002667780
------------------------------------------------------------------------------
                         ORCA GEOMETRY RELAXATION STEP
------------------------------------------------------------------------------

Reading the OPT-File                    .... done
Getting information on internals        .... done
Copying old internal coords+grads       .... done
Making the new internal coordinates     .... (new redundants).... done
Validating the new internal coordinates .... (new redundants).... done
Calculating the B-matrix                .... done
Calculating the G,G- and P matrices     .... done
Transforming gradient to internals      .... done
Projecting the internal gradient        .... done
Number of atoms                         ....   5
Number of internal coordinates          ....  11
Current Energy                          ....    -6.733567466 Eh
Current gradient norm                   ....     0.005464599 Eh/bohr
Maximum allowed component of the step   ....  0.300
Current trust radius                    ....  0.300
Updating the Hessian (BFGS)             .... done
Forming the augmented Hessian           .... done
Diagonalizing the augmented Hessian     .... done
Last element of RFO vector              ....  0.999921067
Lowest eigenvalues of augmented Hessian:
 -0.000067689  0.296998306  0.297099768  0.297836837  0.298061442
Length of the computed step             ....  0.012565243
The final length of the internal step   ....  0.012565243
Converting the step to cartesian space:
 Initial RMS(Int)=    0.0037885634
Transforming coordinates:
 Iter   0:  RMS(Cart)=    0.0032316117 RMS(Int)=    0.0037885582
 Iter   1:  RMS(Cart)=    0.0000008317 RMS(Int)=    0.0000009055
 Iter   2:  RMS(Cart)=    0.0000000026 RMS(Int)=    0.0000000027
Imposing constraints:
 Iter   0:  RMS(Cart)=    0.0000002852 RMS(Int)=    0.0000014605
 Iter   1:  RMS(Cart)=    0.0000001823 RMS(Int)=    0.0000009334
 Iter   2:  RMS(Cart)=    0.0000001165 RMS(Int)=    0.0000005965
 Iter   3:  RMS(Cart)=    0.0000000744 RMS(Int)=    0.0000003812
 Iter   4:  RMS(Cart)=    0.0000000476 RMS(Int)=    0.0000002436
 Iter   5:  RMS(Cart)=    0.0000000304 RMS(Int)=    0.0000001557
 Iter   6:  RMS(Cart)=    0.0000000194 RMS(Int)=    0.0000000995
CONVERGED
done
Storing new coordinates                 .... done

                                .--------------------.
          ----------------------|Geometry convergence|-------------------------
          Item                value                   Tolerance       Converged
          ---------------------------------------------------------------------
          Energy change      -0.0050219410            0.0000050000      NO
          RMS gradient        0.0016247306            0.0001000000      NO
          MAX gradient        0.0030032724            0.0003000000      NO
          RMS step            0.0037885634            0.0020000000      NO
          MAX step            0.0071329420            0.0040000000      NO
          ........................................................
          Max(Bonds)      0.0038      Max(Angles)    0.04
          Max(Dihed)        0.00      Max(Improp)    0.00
          ---------------------------------------------------------------------

The optimization has not yet converged - more geometry cycles are needed


    ---------------------------------------------------------------------------
                         Redundant Internal Coordinates
                            (Angstroem and degrees)

        Definition                    Value    dE/dq     Step     New-Value
    ----------------------------------------------------------------------------
     1. B(H   1,C   0)                1.1152  0.002634 -0.0032    1.1120   
     2. B(H   2,C   0)                1.1147  0.002397 -0.0029    1.1118   
     3. B(H   3,C   0)                1.1160  0.003027 -0.0038    1.1122   
     4. B(H   4,C   0)                1.1152  0.002668 -0.0033    1.1120   
     5. A(H   2,C   0,H   3)          109.49  0.000072   -0.03    109.46   
     6. A(H   1,C   0,H   4)          109.51  0.000040    0.00    109.51   
     7. A(H   2,C   0,H   4)          109.55  0.000133   -0.01    109.54   
     8. A(H   3,C   0,H   4)          109.39 -0.000169    0.04    109.43   
     9. A(H   1,C   0,H   2)          109.54  0.000113   -0.02    109.52   
    10. A(H   1,C   0,H   3)          109.35 -0.000191    0.02    109.37   
    11. D(H   3,H   2,H   1,C   0)    -35.34 -0.000117    0.00    -35.34 C 
    ----------------------------------------------------------------------------

         *************************************************************
         *                GEOMETRY OPTIMIZATION CYCLE   3            *
         *************************************************************
---------------------------------
CARTESIAN COORDINATES (ANGSTROEM)
---------------------------------
  C      4.291587    3.658770   -0.001161
  H      4.662743    2.610582   -0.001188
  H      4.663623    4.184584    0.904990
  H      4.661516    4.181133   -0.910727
  H      3.179631    3.658930   -0.000914

----------------------------
CARTESIAN COORDINATES (A.U.)
----------------------------
  NO LB      ZA    FRAG     MASS         X           Y           Z
   0 C     4.0000    0    12.011    8.109925    6.914073   -0.002193
   1 H     1.0000    0     1.008    8.811307    4.933285   -0.002245
   2 H     1.0000    0     1.008    8.812970    7.907719    1.710183
   3 H     1.0000    0     1.008    8.808988    7.901197   -1.721024
   4 H     1.0000    0     1.008    6.008631    6.914376   -0.001727

--------------------------------
INTERNAL COORDINATES (ANGSTROEM)
--------------------------------
 C      0   0   0     0.000000000000     0.00000000     0.00000000
 H      1   0   0     1.111960070957     0.00000000     0.00000000
 H      1   2   0     1.111755271853   109.52128825     0.00000000
 H      1   2   3     1.112214488949   109.37117410   119.95378884
 H      1   2   3     1.111956683300   109.50691723   239.86870458

---------------------------
INTERNAL COORDINATES (A.U.)
---------------------------
 C      0   0   0     0.000000000000     0.00000000     0.00000000
 H      1   0   0     2.101300005965     0.00000000     0.00000000
 H      1   2   0     2.100912991745   109.52128825     0.00000000
 H      1   2   3     2.101780786293   109.37117410   119.95378884
 H      1   2   3     2.101293604221   109.50691723   239.86870458

------------------------------------------------------------------------------
                           ORCA NDO INTEGRAL CALCULATION
------------------------------------------------------------------------------

--------------
NDO PARAMETERS
--------------

Gamma integral treatment              ... MOPAC
Nuclear repulsuion treatment          ... AM1-style
Interaction factors:
s-s (sigma) =    1.0000
s-p (sigma) =    1.0000
s-d (sigma) =    1.0000
p-p (sigma) =    1.0000  p-p(pi) =    1.0000
p-d (sigma) =    1.0000  p-d(pi) =    1.0000
d-d (sigma) =    1.0000  d-d(pi) =    1.0000 d-d (delta) =    1.0000

--------------------------
Parameters for Element H :
--------------------------
 One-electron parameters (in eV)
  U(s)  =   -11.396427 Beta(s) =     6.173787 Neff(s) =     1.000000
 One-center electron repulsion parameters (in eV)
  G(s,s)=    12.848000
--------------------------
Parameters for Element C :
--------------------------
 One-electron parameters (in eV)
  U(s)  =   -52.028658 Beta(s) =    15.715783 Neff(s) =     2.000000
  U(p)  =   -39.614239 Beta(p) =     7.719283 Neff(p) =     2.000000 
 One-center electron repulsion parameters (in eV)
  G(s,s)=    12.230000
  G(s,p)=    11.470000 G(p,p)  =    10.253300
 Slater-Condon parameters (in eV)
 F2(p,p)=     5.1667 G1(s,p)=    7.2900

 Number of atoms                    ....    5
 Number of basis functions          ....    8

 Overlap integrals                  .... done
 One electron matrix                .... done
 Nuclear repulsion                  .... done
 Integral list                      .... done
 Electron-electron repulsion        .... done

Diagonalization of the overlap matrix:
Smallest eigenvalue                        ... 2.826e-01
Time for diagonalization                   ...    0.000 sec
Threshold for overlap eigenvalues          ... 1.000e-08
Number of eigenvalues below threshold      ... 0
Time for construction of square roots      ...    0.000 sec
Total time needed                          ...    0.000 sec


 InCore treatment chosen:
   Memory dedicated               ...    2000 MB
   Memory needed                  ...      0 MB
   Number of tiny    integrals    ...       0
   Number of small   integrals    ...       1
   Number of regular integrals    ...      65

--------------
SCF ITERATIONS
--------------
ITER       Energy         Delta-E        Max-DP      RMS-DP      [F,P]     Damp
                      *** Initiating the SOSCF procedure ***
                      *** Re-Reading the Fockian *** 
                      *** Removing any level shift *** 
ITER      Energy       Delta-E        Grad      Rot      Max-DP    RMS-DP
  0     -6.73360287  -6.7336028698  0.000933  0.000933  0.001209  0.000187
  1     -6.73360455  -0.0000016831  0.000334  0.000267  0.000520  0.000087
  2     -6.73360482  -0.0000002628  0.000077  0.000087  0.000168  0.000037
  3     -6.73360484  -0.0000000230  0.000007  0.000013  0.000026  0.000007
  4     -6.73360484  -0.0000000008  0.000005  0.000008  0.000016  0.000005
                 **** Energy Check signals convergence ****
              ***Rediagonalizing the Fockian in SOSCF/NRSCF***

               *****************************************************
               *                     SUCCESS                       *
               *           SCF CONVERGED AFTER   5 CYCLES          *
               *****************************************************

Total Energy       :           -6.73360484 Eh            -183.23070 eV
  Last Energy change         ...   -1.7128e-10  Tolerance :   1.0000e-08
  Last MAX-Density change    ...    5.4063e-07  Tolerance :   1.0000e-07
             **** THE GBW FILE WAS UPDATED (calc.gbw) ****
             **** DENSITY calc.scfp WAS UPDATED ****
             **** ENERGY FILE WAS UPDATED (calc.en.tmp) ****
             **** THE GBW FILE WAS UPDATED (calc.gbw) ****
             **** DENSITY calc.scfp WAS UPDATED ****
Total SCF time: 0 days 0 hours 0 min 0 sec 

Maximum memory used throughout the entire SCF-calculation: 222.8 MB

-------------------------   --------------------
FINAL SINGLE POINT ENERGY        -6.733604839636
-------------------------   --------------------

------------------------------------------------------------------------------
                          SCF GRADIENT FOR NDO METHODS
------------------------------------------------------------------------------

The cartesian gradient:
   1   C   :   -0.000117653   -0.000033899    0.000433896
   2   H   :    0.000141510   -0.000193976   -0.000132613
   3   H   :    0.000107996    0.000120563    0.000088248
   4   H   :    0.000131913    0.000086447   -0.000296199
   5   H   :   -0.000263765    0.000020864   -0.000093332

Norm of the cartesian gradient     ...    0.000709794
RMS gradient                       ...    0.000183268
MAX gradient                       ...    0.000433896
------------------------------------------------------------------------------
                         ORCA GEOMETRY RELAXATION STEP
------------------------------------------------------------------------------

Reading the OPT-File                    .... done
Getting information on internals        .... done
Copying old internal coords+grads       .... done
Making the new internal coordinates     .... (new redundants).... done
Validating the new internal coordinates .... (new redundants).... done
Calculating the B-matrix                .... done
Calculating the G,G- and P matrices     .... done
Transforming gradient to internals      .... done
Projecting the internal gradient        .... done
Number of atoms                         ....   5
Number of internal coordinates          ....  11
Current Energy                          ....    -6.733604840 Eh
Current gradient norm                   ....     0.000709794 Eh/bohr
Maximum allowed component of the step   ....  0.300
Current trust radius                    ....  0.300
Updating the Hessian (BFGS)             .... done
Forming the augmented Hessian           .... done
Diagonalizing the augmented Hessian     .... done
Last element of RFO vector              ....  0.999998789
Lowest eigenvalues of augmented Hessian:
 -0.000000844  0.293217202  0.297054940  0.297748889  0.298060401
Length of the computed step             ....  0.001556288
The final length of the internal step   ....  0.001556288
Converting the step to cartesian space:
 Initial RMS(Int)=    0.0004692384
Transforming coordinates:
 Iter   0:  RMS(Cart)=    0.0003885600 RMS(Int)=    0.0004692279
 Iter   1:  RMS(Cart)=    0.0000000960 RMS(Int)=    0.0000000987
Imposing constraints:
 Iter   0:  RMS(Cart)=    0.0000000177 RMS(Int)=    0.0000000912
CONVERGED
done
Storing new coordinates                 .... done

                                .--------------------.
          ----------------------|Geometry convergence|-------------------------
          Item                value                   Tolerance       Converged
          ---------------------------------------------------------------------
          Energy change      -0.0000373734            0.0000050000      NO
          RMS gradient        0.0001651208            0.0001000000      NO
          MAX gradient        0.0002924886            0.0003000000      YES
          RMS step            0.0004692384            0.0020000000      YES
          MAX step            0.0007888127            0.0040000000      YES
          ........................................................
          Max(Bonds)      0.0004      Max(Angles)    0.03
          Max(Dihed)        0.00      Max(Improp)    0.00
          ---------------------------------------------------------------------

       The step convergence is overachieved with 
       reasonable convergence on the gradient
       Convergence will therefore be signaled now


                    ***********************HURRAY********************
                    ***        THE OPTIMIZATION HAS CONVERGED     ***
                    *************************************************


    ---------------------------------------------------------------------------
                         Redundant Internal Coordinates

                          --- Optimized Parameters ---  
                            (Angstroem and degrees)

        Definition                    OldVal   dE/dq     Step     FinalVal
    ----------------------------------------------------------------------------
     1. B(H   1,C   0)                1.1120  0.000236 -0.0003    1.1116   
     2. B(H   2,C   0)                1.1118  0.000171 -0.0002    1.1115   
     3. B(H   3,C   0)                1.1122  0.000314 -0.0004    1.1118   
     4. B(H   4,C   0)                1.1120  0.000264 -0.0004    1.1116   
     5. A(H   2,C   0,H   3)          109.46  0.000004   -0.02    109.44   
     6. A(H   1,C   0,H   4)          109.51  0.000056   -0.00    109.51   
     7. A(H   2,C   0,H   4)          109.54  0.000122   -0.02    109.52   
     8. A(H   3,C   0,H   4)          109.43 -0.000104    0.03    109.47   
     9. A(H   1,C   0,H   2)          109.52  0.000094   -0.02    109.50   
    10. A(H   1,C   0,H   3)          109.37 -0.000173    0.02    109.39   
    11. D(H   3,H   2,H   1,C   0)    -35.34 -0.000110   -0.00    -35.34 C 
    ----------------------------------------------------------------------------
                 *******************************************************
                 *** FINAL ENERGY EVALUATION AT THE STATIONARY POINT ***
                 ***               (AFTER    3 CYCLES)               ***
                 *******************************************************
---------------------------------
CARTESIAN COORDINATES (ANGSTROEM)
---------------------------------
  C      4.291527    3.658743   -0.001377
  H      4.662582    2.610882   -0.001085
  H      4.663485    4.184409    0.904593
  H      4.661567    4.181111   -0.910385
  H      3.179938    3.658854   -0.000745

----------------------------
CARTESIAN COORDINATES (A.U.)
----------------------------
  NO LB      ZA    FRAG     MASS         X           Y           Z
   0 C     4.0000    0    12.011    8.109811    6.914023   -0.002603
   1 H     1.0000    0     1.008    8.811003    4.933853   -0.002051
   2 H     1.0000    0     1.008    8.812710    7.907388    1.709432
   3 H     1.0000    0     1.008    8.809086    7.901155   -1.720379
   4 H     1.0000    0     1.008    6.009212    6.914232   -0.001407

--------------------------------
INTERNAL COORDINATES (ANGSTROEM)
--------------------------------
 C      0   0   0     0.000000000000     0.00000000     0.00000000
 H      1   0   0     1.111617856162     0.00000000     0.00000000
 H      1   2   0     1.111512176913   109.50490467     0.00000000
 H      1   2   3     1.111797087179   109.39083628   119.93398174
 H      1   2   3     1.111589435180   109.50509449   239.89921643

---------------------------
INTERNAL COORDINATES (A.U.)
---------------------------
 C      0   0   0     0.000000000000     0.00000000     0.00000000
 H      1   0   0     2.100653313723     0.00000000     0.00000000
 H      1   2   0     2.100453608884   109.50490467     0.00000000
 H      1   2   3     2.100992011260   109.39083628   119.93398174
 H      1   2   3     2.100599605851   109.50509449   239.89921643

----------------------------
SLATER BASIS SET DIM=   8
----------------------------
  0 C     2 shells
 l=0 nsto= 1
    2       1.808665000000        1.000000000000
 l=1 nsto= 1
    2       1.685116000000        1.000000000000
  1 H     1 shells
 l=0 nsto= 1
    1       1.188078000000        1.000000000000
  2 H     1 shells
 l=0 nsto= 1
    1       1.188078000000        1.000000000000
  3 H     1 shells
 l=0 nsto= 1
    1       1.188078000000        1.000000000000
  4 H     1 shells
 l=0 nsto= 1
    1       1.188078000000        1.000000000000
------------------------------------------------------------------------------
                           ORCA NDO INTEGRAL CALCULATION
------------------------------------------------------------------------------

--------------
NDO PARAMETERS
--------------

Gamma integral treatment              ... MOPAC
Nuclear repulsuion treatment          ... AM1-style
Interaction factors:
s-s (sigma) =    1.0000
s-p (sigma) =    1.0000
s-d (sigma) =    1.0000
p-p (sigma) =    1.0000  p-p(pi) =    1.0000
p-d (sigma) =    1.0000  p-d(pi) =    1.0000
d-d (sigma) =    1.0000  d-d(pi) =    1.0000 d-d (delta) =    1.0000

--------------------------
Parameters for Element H :
--------------------------
 One-electron parameters (in eV)
  U(s)  =   -11.396427 Beta(s) =     6.173787 Neff(s) =     1.000000
 One-center electron repulsion parameters (in eV)
  G(s,s)=    12.848000
--------------------------
Parameters for Element C :
--------------------------
 One-electron parameters (in eV)
  U(s)  =   -52.028658 Beta(s) =    15.715783 Neff(s) =     2.000000
  U(p)  =   -39.614239 Beta(p) =     7.719283 Neff(p) =     2.000000 
 One-center electron repulsion parameters (in eV)
  G(s,s)=    12.230000
  G(s,p)=    11.470000 G(p,p)  =    10.253300
 Slater-Condon parameters (in eV)
 F2(p,p)=     5.1667 G1(s,p)=    7.2900

 Number of atoms                    ....    5
 Number of basis functions          ....    8

 Overlap integrals                  .... done
 One electron matrix                .... done
 Nuclear repulsion                  .... done
 Integral list                      .... done
 Electron-electron repulsion        .... done
-------------------------------------------------------------------------------
                                 ORCA SCF
-------------------------------------------------------------------------------

------------
SCF SETTINGS
------------
Hamiltonian:
 ZDO-Hamiltonian        Method          .... NDDO


General Settings:
 Integral files         IntName         .... calc
 Hartree-Fock type      HFTyp           .... RHF
 Total Charge           Charge          ....    0
 Multiplicity           Mult            ....    1
 Number of Electrons    NEL             ....    8
 Basis Dimension        Dim             ....    8
 Nuclear Repulsion      ENuc            ....      7.3603883381 Eh

Convergence Acceleration:
 DIIS                   CNVDIIS         .... on
   Start iteration      DIISMaxIt       ....    12
   Startup error        DIISStart       ....  0.200000
   # of expansion vecs  DIISMaxEq       ....     5
   Bias factor          DIISBfac        ....   1.050
   Max. coefficient     DIISMaxC        ....  10.000
 Trust-Rad. Augm. Hess. CNVTRAH         .... off
 SOSCF                  CNVSOSCF        .... on
   Start iteration      SOSCFMaxIt      ....   150
   Startup grad/error   SOSCFStart      ....  0.003300
 Level Shifting         CNVShift        .... on
   Level shift para.    LevelShift      ....    0.2500
   Turn off err/grad.   ShiftErr        ....    0.0010
 Zerner damping         CNVZerner       .... off
 Static damping         CNVDamp         .... on
   Fraction old density DampFac         ....    0.7000
   Max. Damping (<1)    DampMax         ....    0.9800
   Min. Damping (>=0)   DampMin         ....    0.0000
   Turn off err/grad.   DampErr         ....    0.1000
 Fernandez-Rico         CNVRico         .... off

SCF Procedure:
 Maximum # iterations   MaxIter         ....   125
 SCF integral mode      SCFMode         .... Conventional
 Integral Buffer length BufferLength    .... 1048576
 Integral index format  IndFormat       ....     0
 Integral value format  ValFormat       ....     0
 Integral Storage       Thresh          ....  2.500e-11 Eh

Convergence Tolerance:
 Convergence Check Mode ConvCheckMode   .... Total+1el-Energy
 Convergence forced     ConvForced      .... 0
 Energy Change          TolE            ....  1.000e-08 Eh
 1-El. energy change                    ....  1.000e-05 Eh
 Orbital Gradient       TolG            ....  1.000e-05
 Orbital Rotation angle TolX            ....  1.000e-05
 DIIS Error             TolErr          ....  5.000e-07


Diagonalization of the overlap matrix:
Smallest eigenvalue                        ... 2.824e-01
Time for diagonalization                   ...    0.000 sec
Threshold for overlap eigenvalues          ... 1.000e-08
Number of eigenvalues below threshold      ... 0
Time for construction of square roots      ...    0.000 sec
Total time needed                          ...    0.000 sec

---------------------
INITIAL GUESS: MOREAD
---------------------
Guess MOs are being read from file: calc.gbw
Input Geometry matches current geometry (good)
Input basis set matches current basis set (good)
                      ------------------
                      INITIAL GUESS DONE (   0.0 sec)
                      ------------------

 InCore treatment chosen:
   Memory dedicated               ...    2000 MB
   Memory needed                  ...      0 MB
   Number of tiny    integrals    ...       0
   Number of small   integrals    ...       1
   Number of regular integrals    ...      65

--------------
SCF ITERATIONS
--------------
ITER       Energy         Delta-E        Max-DP      RMS-DP      [F,P]     Damp
                      *** Initiating the SOSCF procedure ***
                      *** Re-Reading the Fockian *** 
                      *** Removing any level shift *** 
ITER      Energy       Delta-E        Grad      Rot      Max-DP    RMS-DP
  0     -6.73360529  -6.7336052933  0.000097  0.000097  0.000125  0.000025
  1     -6.73360532  -0.0000000306  0.000035  0.000029  0.000054  0.000014
                 **** Energy Check signals convergence ****
              ***Rediagonalizing the Fockian in SOSCF/NRSCF***

               *****************************************************
               *                     SUCCESS                       *
               *           SCF CONVERGED AFTER   2 CYCLES          *
               *****************************************************


----------------
TOTAL SCF ENERGY
----------------

Total Energy       :           -6.73360533 Eh            -183.23072 eV

Components:
Nuclear Repulsion  :            7.36038834 Eh             200.28635 eV
Electronic Energy  :          -14.09399367 Eh            -383.51707 eV
One Electron Energy:          -23.13058797 Eh            -629.41530 eV
Two Electron Energy:            9.03659430 Eh             245.89823 eV


---------------
SCF CONVERGENCE
---------------

  Last Energy change         ...   -7.0994e-09  Tolerance :   1.0000e-08
  Last MAX-Density change    ...    2.1609e-05  Tolerance :   1.0000e-07
  Last RMS-Density change    ...    8.4638e-06  Tolerance :   5.0000e-09
  Last Orbital Gradient      ...    8.4598e-06  Tolerance :   1.0000e-05
  Last Orbital Rotation      ...    1.9500e-05  Tolerance :   1.0000e-05

             **** THE GBW FILE WAS UPDATED (calc.gbw) ****
             **** DENSITY calc.scfp WAS UPDATED ****
             **** ENERGY FILE WAS UPDATED (calc.en.tmp) ****
             **** THE GBW FILE WAS UPDATED (calc.gbw) ****
             **** DENSITY calc.scfp WAS UPDATED ****
----------------
ORBITAL ENERGIES
----------------

  NO   OCC          E(Eh)            E(eV) 
   0   2.0000      -1.061455       -28.8837 
   1   2.0000      -0.489166       -13.3109 
   2   2.0000      -0.489146       -13.3104 
   3   2.0000      -0.488933       -13.3045 
   4   0.0000       0.171173         4.6578 
   5   0.0000       0.171311         4.6616 
   6   0.0000       0.171330         4.6621 
   7   0.0000       0.190480         5.1832 

                    ********************************
                    * MULLIKEN POPULATION ANALYSIS *
                    ********************************

-----------------------
MULLIKEN ATOMIC CHARGES
-----------------------
   0 C :   -0.429602
   1 H :    0.107383
   2 H :    0.107498
   3 H :    0.107204
   4 H :    0.107518
Sum of atomic charges:   -0.0000000

--------------------------------
MULLIKEN REDUCED ORBITAL CHARGES
--------------------------------
  0 C s       :     1.507124  s :     1.507124
      pz      :     0.974190  p :     2.922478
      px      :     0.974108
      py      :     0.974180
  1 H s       :     0.892617  s :     0.892617
  2 H s       :     0.892502  s :     0.892502
  3 H s       :     0.892796  s :     0.892796
  4 H s       :     0.892482  s :     0.892482


                     *******************************
                     * LOEWDIN POPULATION ANALYSIS *
                     *******************************

----------------------
LOEWDIN ATOMIC CHARGES
----------------------
   0 C :   -0.265923
   1 H :    0.066464
   2 H :    0.066553
   3 H :    0.066328
   4 H :    0.066578

-------------------------------
LOEWDIN REDUCED ORBITAL CHARGES
-------------------------------
  0 C s       :     1.230074  s :     1.230074
      pz      :     1.011982  p :     3.035849
      px      :     1.011893
      py      :     1.011974
  1 H s       :     0.933536  s :     0.933536
  2 H s       :     0.933447  s :     0.933447
  3 H s       :     0.933672  s :     0.933672
  4 H s       :     0.933422  s :     0.933422


                      *****************************
                      * MAYER POPULATION ANALYSIS *
                      *****************************

  NA   - Mulliken gross atomic population
  ZA   - Total nuclear charge
  QA   - Mulliken gross atomic charge
  VA   - Mayer's total valence
  BVA  - Mayer's bonded valence
  FA   - Mayer's free valence

  ATOM       NA         ZA         QA         VA         BVA        FA
  0 C      6.8059     4.0000    -2.8059     1.7577    10.8202    -9.0624
  1 H      1.5390     1.0000    -0.5390     0.7094     2.8142    -2.1047
  2 H      1.5390     1.0000    -0.5390     0.7094     2.8141    -2.1047
  3 H      1.5391     1.0000    -0.5391     0.7094     2.8142    -2.1048
  4 H      1.5390     1.0000    -0.5390     0.7095     2.8138    -2.1043

  Mayer bond orders larger than 0.100000
B(  0-C ,  1-H ) :   2.7051 B(  0-C ,  2-H ) :   2.7052 B(  0-C ,  3-H ) :   2.7048 
B(  0-C ,  4-H ) :   2.7050 

-------
TIMINGS
-------

Total SCF time: 0 days 0 hours 0 min 0 sec 

Total time                  ....       0.110 sec
Sum of individual times     ....       0.003 sec  (  2.9%)

Fock matrix formation       ....       0.002 sec  (  1.9%)
Diagonalization             ....       0.000 sec  (  0.0%)
Density matrix formation    ....       0.000 sec  (  0.0%)
Population analysis         ....       0.001 sec  (  0.5%)
Initial guess               ....       0.000 sec  (  0.4%)
Orbital Transformation      ....       0.000 sec  (  0.0%)
Orbital Orthonormalization  ....       0.000 sec  (  0.0%)
DIIS solution               ....       0.000 sec  (  0.0%)
SOSCF solution              ....       0.000 sec  (  0.1%)

Maximum memory used throughout the entire SCF-calculation: 222.8 MB

-------------------------   --------------------
FINAL SINGLE POINT ENERGY        -6.733605331016
-------------------------   --------------------

                                *** OPTIMIZATION RUN DONE ***

                            ***************************************
                            *     ORCA property calculations      *
                            ***************************************

                                    ---------------------
                                    Active property flags
                                    ---------------------
   (+) Dipole Moment


------------------------------------------------------------------------------
                       ORCA ELECTRIC PROPERTIES CALCULATION
------------------------------------------------------------------------------

Dipole Moment Calculation                       ... on
Quadrupole Moment Calculation                   ... off
Polarizability Calculation                      ... off
GBWName                                         ... calc.gbw
Electron density                                ... calc.scfp
The origin for moment calculation is the CENTER OF MASS  = ( 8.109985,  6.914056 -0.002854)

-------------
DIPOLE MOMENT
-------------
                                X             Y             Z
Electronic contribution:     -0.00231      -0.00040       0.00305
Nuclear contribution   :      0.00137       0.00027      -0.00199
                        -----------------------------------------
Total Dipole Moment    :     -0.00094      -0.00013       0.00107
                        -----------------------------------------
Magnitude (a.u.)       :      0.00142
Magnitude (Debye)      :      0.00362



--------------------
Rotational spectrum 
--------------------
 
Rotational constants in cm-1:     5.076655     5.076062     5.072698 
Rotational constants in MHz : 152194.296181 152176.495892 152075.658174 

 Dipole components along the rotational axes: 
x,y,z [a.u.] :    -0.001008     0.000456     0.000899 
x,y,z [Debye]:    -0.002561     0.001158     0.002284 

 

Timings for individual modules:

Sum of individual times         ...        0.628 sec (=   0.010 min)
STO integral calculation        ...        0.061 sec (=   0.001 min)   9.7 %
SCF iterations                  ...        0.481 sec (=   0.008 min)  76.6 %
SCF Gradient evaluation         ...        0.036 sec (=   0.001 min)   5.7 %
Geometry relaxation             ...        0.050 sec (=   0.001 min)   8.0 %
                             ****ORCA TERMINATED NORMALLY****
TOTAL RUN TIME: 0 days 0 hours 0 minutes 0 seconds 801 msec
