 argument  1 = calc.inp
                                         
                                         


             Northwest Computational Chemistry Package (NWChem) 7.0.2
             --------------------------------------------------------


                    Environmental Molecular Sciences Laboratory
                       Pacific Northwest National Laboratory
                                Richland, WA 99352

                              Copyright (c) 1994-2020
                       Pacific Northwest National Laboratory
                            Battelle Memorial Institute

             NWChem is an open-source computational chemistry package
                        distributed under the terms of the
                      Educational Community License (ECL) 2.0
             A copy of the license is included with this distribution
                              in the LICENSE.TXT file

                                  ACKNOWLEDGMENT
                                  --------------

            This software and its documentation were developed at the
            EMSL at Pacific Northwest National Laboratory, a multiprogram
            national laboratory, operated for the U.S. Department of Energy
            by Battelle under Contract Number DE-AC05-76RL01830. Support
            for this work was provided by the Department of Energy Office
            of Biological and Environmental Research, Office of Basic
            Energy Sciences, and the Office of Advanced Scientific Computing.


           Job information
           ---------------

    hostname        = web
    program         = nwchem
    date            = Mon Jul  3 14:25:59 2023

    compiled        = Wed_Jan_06_22:30:30_2021
    source          = /build/nwchem-vBXbhr/nwchem-7.0.2
    nwchem branch   = 7.0.2
    nwchem revision = N/A
    ga revision     = 5.7.1
    use scalapack   = T
    input           = calc.inp
    prefix          = in.
    data base       = ./in.db
    status          = startup
    nproc           =       16
    time left       =     -1s



           Memory information
           ------------------

    heap     =   65535998 doubles =    500.0 Mbytes
    stack    =   65535995 doubles =    500.0 Mbytes
    global   =  131072000 doubles =   1000.0 Mbytes (distinct from heap & stack)
    total    =  262143993 doubles =   2000.0 Mbytes
    verify   = yes
    hardfail = no 


           Directory information
           ---------------------

  0 permanent = .
  0 scratch   = .




                                NWChem Input Module
                                -------------------


                              File created by ccinput
                              -----------------------

 Scaling coordinates for geometry "geometry" by  1.889725989
 (inverse scale =  0.529177249)


          ------
          auto-z
          ------
  Looking for out-of-plane bends
  no constraints, skipping    0.0000000000000000     
  no constraints, skipping    0.0000000000000000     


                             Geometry "geometry" -> ""
                             -------------------------

 Output coordinates in angstroms (scale by  1.889725989 to convert to a.u.)

  No.       Tag          Charge          X              Y              Z
 ---- ---------------- ---------- -------------- -------------- --------------
    1 C                    6.0000    -0.00001000    -0.00000000     0.00090000
    2 H                    1.0000     0.35669000    -1.00880000     0.00090000
    3 H                    1.0000     0.35669000     0.50440000     0.87160000
    4 H                    1.0000     0.35669000     0.50440000    -0.87880000
    5 H                    1.0000    -1.07001000    -0.00000000     0.00090000

      Atomic Mass 
      ----------- 

      C                 12.000000
      H                  1.007825


 Effective nuclear repulsion energy (a.u.)      13.6784097114

            Nuclear Dipole moment (a.u.) 
            ----------------------------
        X                 Y               Z
 ---------------- ---------------- ----------------
     0.0000000000    -0.0000000000     0.0000000000



                                Z-matrix (autoz)
                                -------- 

 Units are Angstrom for bonds and degrees for angles

      Type          Name      I     J     K     L     M      Value
      ----------- --------  ----- ----- ----- ----- ----- ----------
    1 Stretch                  1     2                       1.07001
    2 Stretch                  1     3                       1.06760
    3 Stretch                  1     4                       1.07495
    4 Stretch                  1     5                       1.07000
    5 Bend                     2     1     3               109.51506
    6 Bend                     2     1     4               109.37622
    7 Bend                     2     1     5               109.47300
    8 Bend                     3     1     4               109.56443
    9 Bend                     3     1     5               109.51864
   10 Bend                     4     1     5               109.37977


            XYZ format geometry
            -------------------
     5
 geometry
 C                    -0.00001000    -0.00000000     0.00090000
 H                     0.35669000    -1.00880000     0.00090000
 H                     0.35669000     0.50440000     0.87160000
 H                     0.35669000     0.50440000    -0.87880000
 H                    -1.07001000    -0.00000000     0.00090000

 ==============================================================================
                                internuclear distances
 ------------------------------------------------------------------------------
       center one      |      center two      | atomic units |  angstroms
 ------------------------------------------------------------------------------
    2 H                |   1 C                |     2.02202  |     1.07001
    3 H                |   1 C                |     2.01747  |     1.06760
    4 H                |   1 C                |     2.03137  |     1.07495
    5 H                |   1 C                |     2.02201  |     1.07000
 ------------------------------------------------------------------------------
                         number of included internuclear distances:          4
 ==============================================================================



 ==============================================================================
                                 internuclear angles
 ------------------------------------------------------------------------------
        center 1       |       center 2       |       center 3       |  degrees
 ------------------------------------------------------------------------------
    2 H                |   1 C                |   3 H                |   109.52
    2 H                |   1 C                |   4 H                |   109.38
    2 H                |   1 C                |   5 H                |   109.47
    3 H                |   1 C                |   4 H                |   109.56
    3 H                |   1 C                |   5 H                |   109.52
    4 H                |   1 C                |   5 H                |   109.38
 ------------------------------------------------------------------------------
                            number of included internuclear angles:          6
 ==============================================================================





 Summary of "ao basis" -> "" (cartesian)
 ------------------------------------------------------------------------------
       Tag                 Description            Shells   Functions and Types
 ---------------- ------------------------------  ------  ---------------------
 *                          Def2-SVP                  on all atoms 



                                 NWChem DFT Module
                                 -----------------


                              File created by ccinput


                      Basis "ao basis" -> "ao basis" (cartesian)
                      -----
  C (Carbon)
  ----------
            Exponent  Coefficients 
       -------------- ---------------------------------------------------------
  1 S  1.23840169E+03  0.005457
  1 S  1.86290050E+02  0.040638
  1 S  4.22511763E+01  0.180256
  1 S  1.16765579E+01  0.463151
  1 S  3.59305065E+00  0.440872

  2 S  4.02451474E-01  1.000000

  3 S  1.30901827E-01  1.000000

  4 P  9.46809706E+00  0.038388
  4 P  2.01035451E+00  0.211170
  4 P  5.47710047E-01  0.513282

  5 P  1.52686138E-01  1.000000

  6 D  8.00000000E-01  1.000000

  H (Hydrogen)
  ------------
            Exponent  Coefficients 
       -------------- ---------------------------------------------------------
  1 S  1.30107010E+01  0.019682
  1 S  1.96225720E+00  0.137965
  1 S  4.44537960E-01  0.478319

  2 S  1.21949620E-01  1.000000

  3 P  8.00000000E-01  1.000000



 Summary of "ao basis" -> "ao basis" (cartesian)
 ------------------------------------------------------------------------------
       Tag                 Description            Shells   Functions and Types
 ---------------- ------------------------------  ------  ---------------------
 C                          Def2-SVP                 6       15   3s2p1d
 H                          Def2-SVP                 3        5   2s1p




 Summary of "ao basis" -> "ao basis" (cartesian)
 ------------------------------------------------------------------------------
       Tag                 Description            Shells   Functions and Types
 ---------------- ------------------------------  ------  ---------------------
 C                          Def2-SVP                 6       15   3s2p1d
 H                          Def2-SVP                 3        5   2s1p


  Caching 1-el integrals 

            General Information
            -------------------
          SCF calculation type: DFT
          Wavefunction type:  closed shell.
          No. of atoms     :     5
          No. of electrons :    10
           Alpha electrons :     5
            Beta electrons :     5
          Charge           :     0
          Spin multiplicity:     1
          Use of symmetry is: off; symmetry adaption is: off
          Maximum number of iterations:  30
          AO basis - number of functions:    35
                     number of shells:    18
          Convergence on energy requested:  1.00D-06
          Convergence on density requested:  1.00D-05
          Convergence on gradient requested:  5.00D-04

              XC Information
              --------------
                       M06-2X Method XC Functional
                     Hartree-Fock (Exact) Exchange  0.540          
                        M06-2X Exchange Functional  1.000          
                      M06-2X Correlation Potential  1.000          

             Grid Information
             ----------------
          Grid used for XC integration:  medium    
          Radial quadrature: Mura-Knowles        
          Angular quadrature: Lebedev. 
          Tag              B.-S. Rad. Rad. Pts. Rad. Cut. Ang. Pts.
          ---              ---------- --------- --------- ---------
          C                   0.70       49           6.0       434
          H                   0.35       45           7.0       434
          Grid pruning is: on 
          Number of quadrature shells:   229
          Spatial weights used:  Erf1

          Convergence Information
          -----------------------
          Convergence aids based upon iterative change in 
          total energy or number of iterations. 
          Levelshifting, if invoked, occurs when the 
          HOMO/LUMO gap drops below (HL_TOL):  1.00D-02
          DIIS, if invoked, will attempt to extrapolate 
          using up to (NFOCK): 10 stored Fock matrices.

                    Damping( 0%)  Levelshifting(0.5)       DIIS
                  --------------- ------------------- ---------------
          dE  on:    start            ASAP                start   
          dE off:    2 iters         30 iters            30 iters 


      Screening Tolerance Information
      -------------------------------
          Density screening/tol_rho:  1.00D-10
          AO Gaussian exp screening on grid/accAOfunc:  14
          CD Gaussian exp screening on grid/accCDfunc:  20
          XC Gaussian exp screening on grid/accXCfunc:  20
          Schwarz screening/accCoul:  1.00D-08


      Superposition of Atomic Density Guess
      -------------------------------------

 Sum of atomic energies:         -39.62192656

      Non-variational initial energy
      ------------------------------

 Total energy =     -40.270466
 1-e energy   =     -78.603788
 2-e energy   =      24.654913
 HOMO         =      -0.531515
 LUMO         =       0.114926

   Time after variat. SCF:      0.1
   Time prior to 1st pass:      0.1

 #quartets = 1.471D+04 #integrals = 1.802D+05 #direct =  0.0% #cached =100.0%


 Integral file          = ./in.aoints.00
 Record size in doubles =  65536        No. of integs per rec  =  43688
 Max. records in memory =      2        Max. records in file   =  44630
 No. of bits per label  =      8        No. of bits per value  =     64


File balance: exchanges=     0  moved=     0  time=   0.0


 Grid_pts file          = ./in.gridpts.00
 Record size in doubles =  12289        No. of grid_pts per rec  =   3070
 Max. records in memory =      4        Max. recs in file   =    238013


           Memory utilization after 1st SCF pass: 
           Heap Space remaining (MW):       65.35            65353870
          Stack Space remaining (MW):       65.54            65535660

   convergence    iter        energy       DeltaE   RMS-Dens  Diis-err    time
 ---------------- ----- ----------------- --------- --------- ---------  ------
 d= 0,ls=0.0,diis     1    -40.4407108679 -5.41D+01  6.34D-03  7.22D-02     0.3
 d= 0,ls=0.0,diis     2    -40.4488698979 -8.16D-03  2.00D-03  8.41D-03     0.4
 d= 0,ls=0.0,diis     3    -40.4495638575 -6.94D-04  7.21D-04  1.84D-03     0.4
 d= 0,ls=0.0,diis     4    -40.4497874719 -2.24D-04  4.86D-05  1.70D-06     0.4
 d= 0,ls=0.0,diis     5    -40.4497878220 -3.50D-07  3.04D-06  1.87D-08     0.5


         Total DFT energy =      -40.449787822045
      One electron energy =      -80.188179880408
           Coulomb energy =       32.942520090814
    Exchange-Corr. energy =       -6.882537743852
 Nuclear repulsion energy =       13.678409711401

 Numeric. integr. density =       10.000001034940

     Total iterative time =      0.3s



                       DFT Final Molecular Orbital Analysis
                       ------------------------------------

 Vector    1  Occ=2.000000D+00  E=-1.053260D+01
              MO Center= -1.0D-05, -3.1D-07,  9.0D-04, r^2= 2.8D-02
   Bfn.  Coefficient  Atom+Function         Bfn.  Coefficient  Atom+Function  
  ----- ------------  ---------------      ----- ------------  ---------------
     1      0.989350  1 C  s                  2      0.045366  1 C  s          
     3     -0.036319  1 C  s          

 Vector    2  Occ=2.000000D+00  E=-7.809437D-01
              MO Center= -5.8D-04, -8.1D-04,  3.1D-03, r^2= 1.0D+00
   Bfn.  Coefficient  Atom+Function         Bfn.  Coefficient  Atom+Function  
  ----- ------------  ---------------      ----- ------------  ---------------
     2      0.431667  1 C  s                  1     -0.238547  1 C  s          
    16      0.179408  2 H  s                 21      0.180198  3 H  s          
    31      0.179406  5 H  s                 26      0.177533  4 H  s          
     3      0.109136  1 C  s                 17      0.038710  2 H  s          
    22      0.038832  3 H  s                 32      0.038707  5 H  s          

 Vector    3  Occ=2.000000D+00  E=-4.571685D-01
              MO Center=  9.0D-02,  1.3D-01,  2.9D-01, r^2= 1.2D+00
   Bfn.  Coefficient  Atom+Function         Bfn.  Coefficient  Atom+Function  
  ----- ------------  ---------------      ----- ------------  ---------------
    21      0.386536  3 H  s                  6      0.327499  1 C  pz         
     5      0.241516  1 C  py                 4      0.174798  1 C  px         
    31     -0.153710  5 H  s                 22      0.152578  3 H  s          
    16     -0.148991  2 H  s                  9      0.140930  1 C  pz         
     8      0.103858  1 C  py                26     -0.084875  4 H  s          

 Vector    4  Occ=2.000000D+00  E=-4.565976D-01
              MO Center= -1.7D-01, -2.4D-01,  9.4D-04, r^2= 1.2D+00
   Bfn.  Coefficient  Atom+Function         Bfn.  Coefficient  Atom+Function  
  ----- ------------  ---------------      ----- ------------  ---------------
     4      0.360928  1 C  px                16      0.318374  2 H  s          
    31     -0.317607  5 H  s                  5     -0.256132  1 C  py         
     7      0.155757  1 C  px                17      0.126085  2 H  s          
    32     -0.125783  5 H  s                  8     -0.110536  1 C  py         

 Vector    5  Occ=2.000000D+00  E=-4.555440D-01
              MO Center=  8.0D-02,  1.1D-01, -3.0D-01, r^2= 1.2D+00
   Bfn.  Coefficient  Atom+Function         Bfn.  Coefficient  Atom+Function  
  ----- ------------  ---------------      ----- ------------  ---------------
    26      0.380191  4 H  s                  6     -0.297270  1 C  pz         
     5      0.268134  1 C  py                 4      0.187182  1 C  px         
    16     -0.167543  2 H  s                 31     -0.164708  5 H  s          
    27      0.151399  4 H  s                  9     -0.129148  1 C  pz         
     8      0.116408  1 C  py                 7      0.081265  1 C  px         

 Vector    6  Occ=0.000000D+00  E= 1.197354D-01
              MO Center=  3.4D-04,  4.3D-04, -6.4D-03, r^2= 4.8D+00
   Bfn.  Coefficient  Atom+Function         Bfn.  Coefficient  Atom+Function  
  ----- ------------  ---------------      ----- ------------  ---------------
     3      3.166629  1 C  s                 17     -1.133786  2 H  s          
    22     -1.132342  3 H  s                 27     -1.136148  4 H  s          
    32     -1.133794  5 H  s                  2      0.140746  1 C  s          
     1     -0.132489  1 C  s          

 Vector    7  Occ=0.000000D+00  E= 1.927746D-01
              MO Center=  2.5D-01,  3.5D-01, -7.9D-01, r^2= 3.5D+00
   Bfn.  Coefficient  Atom+Function         Bfn.  Coefficient  Atom+Function  
  ----- ------------  ---------------      ----- ------------  ---------------
    27      2.149939  4 H  s                  9      0.986128  1 C  pz         
    17     -0.853338  2 H  s                 32     -0.854109  5 H  s          
     8     -0.728935  1 C  py                 7     -0.515782  1 C  px         
    22     -0.477986  3 H  s                  6      0.246718  1 C  pz         
     5     -0.182482  1 C  py                 4     -0.129123  1 C  px         

 Vector    8  Occ=0.000000D+00  E= 1.934694D-01
              MO Center= -4.6D-01, -6.5D-01,  9.4D-04, r^2= 3.7D+00
   Bfn.  Coefficient  Atom+Function         Bfn.  Coefficient  Atom+Function  
  ----- ------------  ---------------      ----- ------------  ---------------
    17      1.787067  2 H  s                 32     -1.787641  5 H  s          
     7     -1.089989  1 C  px                 8      0.770349  1 C  py         
     4     -0.271049  1 C  px                 5      0.191569  1 C  py         
    16      0.074613  2 H  s                 31     -0.074639  5 H  s          

 Vector    9  Occ=0.000000D+00  E= 1.937688D-01
              MO Center=  2.1D-01,  3.0D-01,  8.0D-01, r^2= 3.6D+00
   Bfn.  Coefficient  Atom+Function         Bfn.  Coefficient  Atom+Function  
  ----- ------------  ---------------      ----- ------------  ---------------
    22      2.148849  3 H  s                 17     -0.933964  2 H  s          
    32     -0.932202  5 H  s                  9     -0.898190  1 C  pz         
     8     -0.809140  1 C  py                 7     -0.571337  1 C  px         
    27     -0.263842  4 H  s                  6     -0.222518  1 C  pz         
     5     -0.200584  1 C  py                 4     -0.141636  1 C  px         

 Vector   10  Occ=0.000000D+00  E= 4.653918D-01
              MO Center= -1.5D-02, -1.0D-02, -1.0D-01, r^2= 2.4D+00
   Bfn.  Coefficient  Atom+Function         Bfn.  Coefficient  Atom+Function  
  ----- ------------  ---------------      ----- ------------  ---------------
     8      1.013611  1 C  py                21     -0.704564  3 H  s          
     7      0.683474  1 C  px                16      0.482609  2 H  s          
    31      0.453125  5 H  s                  9      0.442364  1 C  pz         
     5     -0.246900  1 C  py                26     -0.232941  4 H  s          
     4     -0.166474  1 C  px                 6     -0.106007  1 C  pz         

 Vector   11  Occ=0.000000D+00  E= 4.655785D-01
              MO Center=  9.4D-02,  1.2D-01,  5.4D-04, r^2= 2.4D+00
   Bfn.  Coefficient  Atom+Function         Bfn.  Coefficient  Atom+Function  
  ----- ------------  ---------------      ----- ------------  ---------------
     7      1.073621  1 C  px                 8     -0.729669  1 C  py         
    31      0.712699  5 H  s                 16     -0.694327  2 H  s          
     4     -0.261284  1 C  px                 5      0.177600  1 C  py         
    10      0.066746  1 C  dxx               13     -0.065453  1 C  dyy        
    11      0.045375  1 C  dxy               28      0.029041  4 H  px         

 Vector   12  Occ=0.000000D+00  E= 4.659509D-01
              MO Center= -7.7D-02, -1.1D-01,  9.3D-02, r^2= 2.4D+00
   Bfn.  Coefficient  Atom+Function         Bfn.  Coefficient  Atom+Function  
  ----- ------------  ---------------      ----- ------------  ---------------
     9      1.218575  1 C  pz                26      0.832318  4 H  s          
    21     -0.495023  3 H  s                  8     -0.344030  1 C  py         
     6     -0.297382  1 C  pz                 7     -0.249292  1 C  px         
    31     -0.170581  5 H  s                 16     -0.165261  2 H  s          
    14     -0.107646  1 C  dyz                5      0.085388  1 C  py         

 Vector   13  Occ=0.000000D+00  E= 7.090370D-01
              MO Center=  5.1D-03,  7.3D-03, -3.4D-02, r^2= 3.1D+00
   Bfn.  Coefficient  Atom+Function         Bfn.  Coefficient  Atom+Function  
  ----- ------------  ---------------      ----- ------------  ---------------
     3      6.170851  1 C  s                  2     -2.037518  1 C  s          
    27     -1.437402  4 H  s                 17     -1.394755  2 H  s          
    32     -1.394967  5 H  s                 22     -1.376219  3 H  s          
     1      0.266926  1 C  s                 10     -0.129095  1 C  dxx        
    13     -0.128803  1 C  dyy               15     -0.127555  1 C  dzz        

 Vector   14  Occ=0.000000D+00  E= 7.562149D-01
              MO Center=  1.0D-01,  1.5D-01, -3.5D-01, r^2= 2.3D+00
   Bfn.  Coefficient  Atom+Function         Bfn.  Coefficient  Atom+Function  
  ----- ------------  ---------------      ----- ------------  ---------------
    27      1.804071  4 H  s                  9      1.170387  1 C  pz         
     8     -0.887302  1 C  py                17     -0.771790  2 H  s          
    32     -0.771280  5 H  s                  6     -0.671310  1 C  pz         
     7     -0.627084  1 C  px                26     -0.583288  4 H  s          
     5      0.509143  1 C  py                22     -0.417935  3 H  s          

 Vector   15  Occ=0.000000D+00  E= 7.583230D-01
              MO Center= -2.2D-01, -3.0D-01,  9.7D-04, r^2= 2.3D+00
   Bfn.  Coefficient  Atom+Function         Bfn.  Coefficient  Atom+Function  
  ----- ------------  ---------------      ----- ------------  ---------------
    17      1.523431  2 H  s                 32     -1.522577  5 H  s          
     7     -1.303244  1 C  px                 8      0.922129  1 C  py         
     4      0.747043  1 C  px                 5     -0.528596  1 C  py         
    16     -0.472939  2 H  s                 31      0.472755  5 H  s          
    19      0.170853  2 H  py                33     -0.165867  5 H  px         

 Vector   16  Occ=0.000000D+00  E= 7.593233D-01
              MO Center=  1.1D-01,  1.5D-01,  3.8D-01, r^2= 2.3D+00
   Bfn.  Coefficient  Atom+Function         Bfn.  Coefficient  Atom+Function  
  ----- ------------  ---------------      ----- ------------  ---------------
    22      1.848283  3 H  s                  9     -1.085884  1 C  pz         
     8     -0.954550  1 C  py                17     -0.767932  2 H  s          
    32     -0.769734  5 H  s                  7     -0.676127  1 C  px         
     6      0.621940  1 C  pz                21     -0.562201  3 H  s          
     5      0.547009  1 C  py                 4      0.387448  1 C  px         

 Vector   17  Occ=0.000000D+00  E= 8.458939D-01
              MO Center= -1.2D-03, -1.7D-03,  2.5D-03, r^2= 2.1D+00
   Bfn.  Coefficient  Atom+Function         Bfn.  Coefficient  Atom+Function  
  ----- ------------  ---------------      ----- ------------  ---------------
     3      3.198365  1 C  s                 16     -0.769283  2 H  s          
    21     -0.771449  3 H  s                 31     -0.769188  5 H  s          
    26     -0.758939  4 H  s                  2     -0.441221  1 C  s          
    27     -0.404646  4 H  s                 17     -0.379446  2 H  s          
    32     -0.379452  5 H  s                 22     -0.367431  3 H  s          

 Vector   18  Occ=0.000000D+00  E= 1.156162D+00
              MO Center=  2.3D-04,  2.6D-04, -1.3D-03, r^2= 1.2D+00
   Bfn.  Coefficient  Atom+Function         Bfn.  Coefficient  Atom+Function  
  ----- ------------  ---------------      ----- ------------  ---------------
    12      0.507887  1 C  dxz               20      0.368377  2 H  pz         
    35     -0.368338  5 H  pz                14     -0.359158  1 C  dyz        
    23      0.300439  3 H  px                28     -0.301712  4 H  px         
    24     -0.212508  3 H  py                29      0.213327  4 H  py         

 Vector   19  Occ=0.000000D+00  E= 1.156587D+00
              MO Center= -5.0D-04, -7.3D-04, -8.3D-04, r^2= 1.2D+00
   Bfn.  Coefficient  Atom+Function         Bfn.  Coefficient  Atom+Function  
  ----- ------------  ---------------      ----- ------------  ---------------
    11      0.508257  1 C  dxy               34     -0.368884  5 H  py         
    18     -0.347662  2 H  px                29      0.246639  4 H  py         
    24      0.244850  3 H  py                25     -0.212855  3 H  pz         
    30      0.211294  4 H  pz                13      0.179959  1 C  dyy        
    15     -0.179430  1 C  dzz               28      0.174334  4 H  px         

 Vector   20  Occ=0.000000D+00  E= 1.603322D+00
              MO Center=  1.3D-01,  2.8D-01, -9.7D-03, r^2= 1.5D+00
   Bfn.  Coefficient  Atom+Function         Bfn.  Coefficient  Atom+Function  
  ----- ------------  ---------------      ----- ------------  ---------------
    24      0.408110  3 H  py                35      0.407895  5 H  pz         
    29     -0.379921  4 H  py                25     -0.364571  3 H  pz         
    30     -0.365108  4 H  pz                28     -0.357664  4 H  px         
    20      0.316206  2 H  pz                23      0.311738  3 H  px         
    34     -0.046379  5 H  py                18      0.043042  2 H  px         

 Vector   21  Occ=0.000000D+00  E= 1.603374D+00
              MO Center= -3.1D-02, -1.3D-01, -3.1D-01, r^2= 1.5D+00
   Bfn.  Coefficient  Atom+Function         Bfn.  Coefficient  Atom+Function  
  ----- ------------  ---------------      ----- ------------  ---------------
    28      0.478251  4 H  px                20      0.427867  2 H  pz         
    34      0.415725  5 H  py                29     -0.411159  4 H  py         
    18     -0.392328  2 H  px                35     -0.344382  5 H  pz         
    19     -0.137624  2 H  py                24      0.131162  3 H  py         
    23     -0.082934  3 H  px                25     -0.042067  3 H  pz         

 Vector   22  Occ=0.000000D+00  E= 1.604681D+00
              MO Center= -1.0D-01, -1.4D-01,  3.1D-01, r^2= 1.5D+00
   Bfn.  Coefficient  Atom+Function         Bfn.  Coefficient  Atom+Function  
  ----- ------------  ---------------      ----- ------------  ---------------
    23      0.502351  3 H  px                34      0.476669  5 H  py         
    18     -0.449224  2 H  px                24     -0.357615  3 H  py         
    20     -0.343734  2 H  pz                35      0.340988  5 H  pz         
    19     -0.159347  2 H  py                28     -0.054806  4 H  px         
    29      0.041201  4 H  py         

 Vector   23  Occ=0.000000D+00  E= 1.836749D+00
              MO Center=  2.1D-02,  3.0D-02, -6.4D-02, r^2= 1.7D+00
   Bfn.  Coefficient  Atom+Function         Bfn.  Coefficient  Atom+Function  
  ----- ------------  ---------------      ----- ------------  ---------------
     9      0.712124  1 C  pz                 8     -0.476139  1 C  py         
    26      0.452947  4 H  s                 30     -0.385785  4 H  pz         
    25     -0.368767  3 H  pz                20     -0.366433  2 H  pz         
    35     -0.366409  5 H  pz                14      0.347578  1 C  dyz        
     7     -0.338843  1 C  px                29      0.258437  4 H  py         

 Vector   24  Occ=0.000000D+00  E= 1.840234D+00
              MO Center= -3.3D-02, -4.6D-02,  2.7D-04, r^2= 1.7D+00
   Bfn.  Coefficient  Atom+Function         Bfn.  Coefficient  Atom+Function  
  ----- ------------  ---------------      ----- ------------  ---------------
     7      0.764530  1 C  px                 8     -0.534594  1 C  py         
    33     -0.405496  5 H  px                18     -0.396594  2 H  px         
    23     -0.392328  3 H  px                28     -0.391610  4 H  px         
    31      0.375898  5 H  s                 16     -0.373180  2 H  s          
    19      0.286767  2 H  py                24      0.274287  3 H  py         

 Vector   25  Occ=0.000000D+00  E= 1.841217D+00
              MO Center=  1.3D-02,  1.6D-02,  5.4D-02, r^2= 1.7D+00
   Bfn.  Coefficient  Atom+Function         Bfn.  Coefficient  Atom+Function  
  ----- ------------  ---------------      ----- ------------  ---------------
     9      0.599181  1 C  pz                 8      0.594733  1 C  py         
    21     -0.445087  3 H  s                  7      0.411188  1 C  px         
    25     -0.314415  3 H  pz                19     -0.310250  2 H  py         
    24     -0.311602  3 H  py                20     -0.306894  2 H  pz         
    35     -0.306869  5 H  pz                29     -0.303605  4 H  py         

 Vector   26  Occ=0.000000D+00  E= 2.191620D+00
              MO Center= -2.4D-03, -1.9D-03,  9.6D-03, r^2= 1.6D+00
   Bfn.  Coefficient  Atom+Function         Bfn.  Coefficient  Atom+Function  
  ----- ------------  ---------------      ----- ------------  ---------------
    27      0.665468  4 H  s                  9      0.531200  1 C  pz         
    30      0.515988  4 H  pz                 8     -0.459602  1 C  py         
    24      0.446570  3 H  py                14     -0.441858  1 C  dyz        
     6      0.425175  1 C  pz                20     -0.415730  2 H  pz         
    35     -0.416115  5 H  pz                18      0.398235  2 H  px         

 Vector   27  Occ=0.000000D+00  E= 2.192072D+00
              MO Center=  5.2D-03,  6.0D-03, -1.5D-03, r^2= 1.5D+00
   Bfn.  Coefficient  Atom+Function         Bfn.  Coefficient  Atom+Function  
  ----- ------------  ---------------      ----- ------------  ---------------
     7      0.621755  1 C  px                32      0.558738  5 H  s          
    19     -0.544344  2 H  py                17     -0.541486  2 H  s          
     4      0.503469  1 C  px                23     -0.496474  3 H  px         
    28     -0.475031  4 H  px                33      0.466651  5 H  px         
     8     -0.418841  1 C  py                10      0.378119  1 C  dxx        

 Vector   28  Occ=0.000000D+00  E= 2.194073D+00
              MO Center= -2.4D-03, -3.5D-03, -8.3D-03, r^2= 1.5D+00
   Bfn.  Coefficient  Atom+Function         Bfn.  Coefficient  Atom+Function  
  ----- ------------  ---------------      ----- ------------  ---------------
    22      0.665754  3 H  s                  9     -0.536211  1 C  pz         
    25     -0.508631  3 H  pz                14      0.465373  1 C  dyz        
     6     -0.434956  1 C  pz                29      0.433810  4 H  py         
     8     -0.422649  1 C  py                20      0.424410  2 H  pz         
    35      0.424516  5 H  pz                18      0.394173  2 H  px         

 Vector   29  Occ=0.000000D+00  E= 2.588540D+00
              MO Center= -5.6D-04, -7.9D-04,  2.0D-03, r^2= 1.1D+00
   Bfn.  Coefficient  Atom+Function         Bfn.  Coefficient  Atom+Function  
  ----- ------------  ---------------      ----- ------------  ---------------
    11      1.634881  1 C  dxy               13      0.579862  1 C  dyy        
    15     -0.573031  1 C  dzz               34      0.465351  5 H  py         
    18      0.441944  2 H  px                24     -0.308676  3 H  py         
    29     -0.299275  4 H  py                25      0.274025  3 H  pz         
    30     -0.273888  4 H  pz                23     -0.217675  3 H  px         

 Vector   30  Occ=0.000000D+00  E= 2.589027D+00
              MO Center= -7.6D-05, -1.1D-04,  3.3D-03, r^2= 1.1D+00
   Bfn.  Coefficient  Atom+Function         Bfn.  Coefficient  Atom+Function  
  ----- ------------  ---------------      ----- ------------  ---------------
    12      1.633900  1 C  dxz               14     -1.155528  1 C  dyz        
    20     -0.464205  2 H  pz                35      0.464179  5 H  pz         
    23     -0.383977  3 H  px                28      0.372782  4 H  px         
    24      0.271037  3 H  py                29     -0.264027  4 H  py         

 Vector   31  Occ=0.000000D+00  E= 2.636737D+00
              MO Center=  5.7D-04,  7.1D-04, -1.0D-02, r^2= 1.6D+00
   Bfn.  Coefficient  Atom+Function         Bfn.  Coefficient  Atom+Function  
  ----- ------------  ---------------      ----- ------------  ---------------
     2      1.636383  1 C  s                  3      1.083573  1 C  s          
    33     -0.858734  5 H  px                19     -0.811141  2 H  py         
    30     -0.712390  4 H  pz                26     -0.693854  4 H  s          
    25      0.687872  3 H  pz                16     -0.682329  2 H  s          
    31     -0.682227  5 H  s                 21     -0.673786  3 H  s          

 Vector   32  Occ=0.000000D+00  E= 2.965476D+00
              MO Center=  7.1D-02,  1.0D-01, -2.0D-01, r^2= 1.1D+00
   Bfn.  Coefficient  Atom+Function         Bfn.  Coefficient  Atom+Function  
  ----- ------------  ---------------      ----- ------------  ---------------
    14      1.544193  1 C  dyz               26      1.232362  4 H  s          
    12      1.092106  1 C  dxz               30      1.014453  4 H  pz         
     6      0.931637  1 C  pz                15     -0.752064  1 C  dzz        
    11     -0.700219  1 C  dxy                5     -0.599654  1 C  py         
    29     -0.585777  4 H  py                10      0.509745  1 C  dxx        

 Vector   33  Occ=0.000000D+00  E= 2.971156D+00
              MO Center= -1.2D-01, -1.7D-01,  1.2D-03, r^2= 1.1D+00
   Bfn.  Coefficient  Atom+Function         Bfn.  Coefficient  Atom+Function  
  ----- ------------  ---------------      ----- ------------  ---------------
    10      1.142791  1 C  dxx               13     -1.141834  1 C  dyy        
    16      1.037373  2 H  s                 31     -1.038553  5 H  s          
    33     -1.037764  5 H  px                 4     -0.983793  1 C  px         
    19      0.964774  2 H  py                11      0.806875  1 C  dxy        
     5      0.694495  1 C  py                 7     -0.476882  1 C  px         

 Vector   34  Occ=0.000000D+00  E= 2.973834D+00
              MO Center=  5.1D-02,  7.1D-02,  2.1D-01, r^2= 1.1D+00
   Bfn.  Coefficient  Atom+Function         Bfn.  Coefficient  Atom+Function  
  ----- ------------  ---------------      ----- ------------  ---------------
    14      1.233171  1 C  dyz               21     -1.237972  3 H  s          
    25      0.994374  3 H  pz                15      0.949110  1 C  dzz        
    11      0.901539  1 C  dxy               12      0.872146  1 C  dxz        
     5      0.776067  1 C  py                 6      0.753744  1 C  pz         
    10     -0.627669  1 C  dxx               24      0.593946  3 H  py         

 Vector   35  Occ=0.000000D+00  E= 5.356677D+00
              MO Center=  1.6D-04,  2.4D-04, -1.1D-04, r^2= 4.8D-01
   Bfn.  Coefficient  Atom+Function         Bfn.  Coefficient  Atom+Function  
  ----- ------------  ---------------      ----- ------------  ---------------
     2      3.978480  1 C  s                 10     -2.044258  1 C  dxx        
    13     -2.043884  1 C  dyy               15     -2.044128  1 C  dzz        
     1     -0.962471  1 C  s                 21      0.301879  3 H  s          
    16      0.298130  2 H  s                 31      0.298139  5 H  s          
    33      0.298085  5 H  px                26      0.290936  4 H  s          


 center of mass
 --------------
 x =  -0.00000702 y =  -0.00000000 z =   0.00063156

 moments of inertia (a.u.)
 ------------------
          11.007571562656          -0.000000000000           0.011553691400
          -0.000000000000          11.007890108582           0.016338056218
           0.011553691400           0.016338056218          10.988205954505

     Multipole analysis of the density
     ---------------------------------

     L   x y z        total         alpha         beta         nuclear
     -   - - -        -----         -----         ----         -------
     0   0 0 0     -0.000000     -5.000000     -5.000000     10.000000

     1   1 0 0     -0.000294     -0.000147     -0.000147      0.000000
     1   0 1 0     -0.000423     -0.000211     -0.000211     -0.000000
     1   0 0 1      0.000696      0.000348      0.000348      0.000000

     2   2 0 0     -6.111245     -5.781424     -5.781424      5.451603
     2   1 1 0     -0.000631     -0.000316     -0.000316      0.000000
     2   1 0 1      0.000409      0.005937      0.005937     -0.011464
     2   0 2 0     -6.111861     -5.781574     -5.781574      5.451287
     2   0 1 1      0.000579      0.008395      0.008395     -0.016211
     2   0 0 2     -6.107773     -5.789291     -5.789291      5.470808


 Parallel integral file used      16 records with       0 large values


 Task  times  cpu:        0.3s     wall:        0.4s


                                NWChem Input Module
                                -------------------


 Summary of allocated global arrays
-----------------------------------
  No active global arrays



                         GA Statistics for process    0
                         ------------------------------

       create   destroy   get      put      acc     scatter   gather  read&inc
calls:  110      110      644      209      302        0        0       86     
number of processes/call 0.00e+00 0.00e+00 0.00e+00 0.00e+00 0.00e+00
bytes total:             1.56e+06 2.51e+05 7.11e+05 0.00e+00 0.00e+00 6.88e+02
bytes remote:            9.94e+05 1.13e+05 4.16e+05 0.00e+00 0.00e+00 0.00e+00
Max memory consumed for GA by this process: 88568 bytes

MA_summarize_allocated_blocks: starting scan ...
MA_summarize_allocated_blocks: scan completed: 0 heap blocks, 0 stack blocks
MA usage statistics:

	allocation statistics:
					      heap	     stack
					      ----	     -----
	current number of blocks	         0	         0
	maximum number of blocks	        21	        53
	current total bytes		         0	         0
	maximum total bytes		   1457048	  22511416
	maximum total K-bytes		      1458	     22512
	maximum total M-bytes		         2	        23


                                     CITATION
                                     --------
                Please cite the following reference when publishing
                           results obtained with NWChem:

          E. Aprà, E. J. Bylaska, W. A. de Jong, N. Govind, K. Kowalski,
       T. P. Straatsma, M. Valiev, H. J. J. van Dam, Y. Alexeev, J. Anchell,
       V. Anisimov, F. W. Aquino, R. Atta-Fynn, J. Autschbach, N. P. Bauman,
     J. C. Becca, D. E. Bernholdt, K. Bhaskaran-Nair, S. Bogatko, P. Borowski,
        J. Boschen, J. Brabec, A. Bruner, E. Cauët, Y. Chen, G. N. Chuev,
      C. J. Cramer, J. Daily, M. J. O. Deegan, T. H. Dunning Jr., M. Dupuis,
   K. G. Dyall, G. I. Fann, S. A. Fischer, A. Fonari, H. Früchtl, L. Gagliardi,
      J. Garza, N. Gawande, S. Ghosh, K. Glaesemann, A. W. Götz, J. Hammond,
       V. Helms, E. D. Hermes, K. Hirao, S. Hirata, M. Jacquelin, L. Jensen,
   B. G. Johnson, H. Jónsson, R. A. Kendall, M. Klemm, R. Kobayashi, V. Konkov,
      S. Krishnamoorthy, M. Krishnan, Z. Lin, R. D. Lins, R. J. Littlefield,
      A. J. Logsdail, K. Lopata, W. Ma, A. V. Marenich, J. Martin del Campo,
   D. Mejia-Rodriguez, J. E. Moore, J. M. Mullin, T. Nakajima, D. R. Nascimento,
    J. A. Nichols, P. J. Nichols, J. Nieplocha, A. Otero-de-la-Roza, B. Palmer,
    A. Panyala, T. Pirojsirikul, B. Peng, R. Peverati, J. Pittner, L. Pollack,
   R. M. Richard, P. Sadayappan, G. C. Schatz, W. A. Shelton, D. W. Silverstein,
   D. M. A. Smith, T. A. Soares, D. Song, M. Swart, H. L. Taylor, G. S. Thomas,
            V. Tipparaju, D. G. Truhlar, K. Tsemekhman, T. Van Voorhis,
     Á. Vázquez-Mayagoitia, P. Verma, O. Villa, A. Vishnu, K. D. Vogiatzis,
        D. Wang, J. H. Weare, M. J. Williamson, T. L. Windus, K. Woliński,
        A. T. Wong, Q. Wu, C. Yang, Q. Yu, M. Zacharias, Z. Zhang, Y. Zhao,
                                and R. J. Harrison
                        "NWChem: Past, present, and future
                         J. Chem. Phys. 152, 184102 (2020)
                               doi:10.1063/5.0004997

                                      AUTHORS
                                      -------
     E. Apra, E. J. Bylaska, N. Govind, K. Kowalski, M. Valiev, W. A. de Jong,
      T. P. Straatsma, H. J. J. van Dam, D. Wang, T. L. Windus, N. P. Bauman,
       A. Panyala, J. Hammond, J. Autschbach, K. Bhaskaran-Nair, J. Brabec,
    K. Lopata, S. A. Fischer, S. Krishnamoorthy, M. Jacquelin, W. Ma, M. Klemm,
       O. Villa, Y. Chen, V. Anisimov, F. Aquino, S. Hirata, M. T. Hackler,
           Eric Hermes, L. Jensen, J. E. Moore, J. C. Becca, V. Konjkov,
            D. Mejia-Rodriguez, T. Risthaus, M. Malagoli, A. Marenich,
   A. Otero-de-la-Roza, J. Mullin, P. Nichols, R. Peverati, J. Pittner, Y. Zhao,
        P.-D. Fan, A. Fonari, M. J. Williamson, R. J. Harrison, J. R. Rehr,
      M. Dupuis, D. Silverstein, D. M. A. Smith, J. Nieplocha, V. Tipparaju,
      M. Krishnan, B. E. Van Kuiken, A. Vazquez-Mayagoitia, M. Swart, Q. Wu,
   T. Van Voorhis, A. A. Auer, M. Nooijen, L. D. Crosby, E. Brown, G. Cisneros,
     G. I. Fann, H. Fruchtl, J. Garza, K. Hirao, R. A. Kendall, J. A. Nichols,
       K. Tsemekhman, K. Wolinski, J. Anchell, D. E. Bernholdt, P. Borowski,
       T. Clark, D. Clerc, H. Dachsel, M. J. O. Deegan, K. Dyall, D. Elwood,
      E. Glendening, M. Gutowski, A. C. Hess, J. Jaffe, B. G. Johnson, J. Ju,
        R. Kobayashi, R. Kutteh, Z. Lin, R. Littlefield, X. Long, B. Meng,
      T. Nakajima, S. Niu, L. Pollack, M. Rosing, K. Glaesemann, G. Sandrone,
      M. Stave, H. Taylor, G. Thomas, J. H. van Lenthe, A. T. Wong, Z. Zhang.

 Total times  cpu:        0.3s     wall:        0.5s
[0] ARMCI Warning: Freed 1 leaked allocations
