5
 energy: -4.042848815269 gnorm: 0.296903326615 xtb: 6.4.1 (afa7bdf)
C         4.19875601738207    3.92090955017256   -0.00198870650686
H         4.84172521302012    2.10540819423708   -0.00024687103020
H         4.63829198727987    4.26635869290771    0.91122289859716
H         4.63648217315554    4.26324606511040   -0.91728429783746
H         3.14384460916240    3.73807749757224   -0.00070302322264
5
 energy: -4.054002690308 gnorm: 0.012420935699 xtb: 6.4.1 (afa7bdf)
C         4.19183584917352    3.94185929616073   -0.00214121024945
H         4.85166416872897    2.07507991893288   -0.00000511200161
H         4.63842844663534    4.27015031404513    0.91357081711402
H         4.63649188428798    4.26747496747214   -0.91971587947812
H         3.14067965117419    3.73943550338912   -0.00070861538485
5
 energy: -4.054027797510 gnorm: 0.000256176386 xtb: 6.4.1 (afa7bdf)
C         4.19223719352923    3.94002275995607   -0.00207366492607
H         4.85345417294273    2.07118638059112   -0.00010990484363
H         4.63734489955044    4.27180041108608    0.91281013485098
H         4.63547736006329    4.26890052648008   -0.91892161381762
H         3.14058637391431    3.74208992188665   -0.00070495126366
5
 energy: -4.054027740772 gnorm: 0.000347271660 xtb: 6.4.1 (afa7bdf)
C         4.19326496588280    3.93943418073851   -0.00228891699128
H         4.85240940528456    2.06982019961074    0.00029398629021
H         4.63706567733472    4.27285376403025    0.91273415203290
H         4.63495533438323    4.27080208726827   -0.91900407436849
H         3.14140461711469    3.74108976835223   -0.00073514696335
5
 energy: -4.054027841084 gnorm: 0.000221338008 xtb: 6.4.1 (afa7bdf)
C         4.19249478034365    3.93868816216065   -0.00201707198199
H         4.85422023943946    2.07000806024283   -0.00019814206812
H         4.63700822732184    4.27252261308845    0.91268706339331
H         4.63518861633523    4.26943387896272   -0.91876638874341
H         3.14018813655982    3.74334728554535   -0.00070546059979
