
                                 *****************
                                 * O   R   C   A *
                                 *****************

                                            #,                                       
                                            ###                                      
                                            ####                                     
                                            #####                                    
                                            ######                                   
                                           ########,                                 
                                     ,,################,,,,,                         
                               ,,#################################,,                 
                          ,,##########################################,,             
                       ,#########################################, ''#####,          
                    ,#############################################,,   '####,        
                  ,##################################################,,,,####,       
                ,###########''''           ''''###############################       
              ,#####''   ,,,,##########,,,,          '''####'''          '####       
            ,##' ,,,,###########################,,,                        '##       
           ' ,,###''''                  '''############,,,                           
         ,,##''                                '''############,,,,        ,,,,,,###''
      ,#''                                            '''#######################'''  
     '                                                          ''''####''''         
             ,#######,   #######,   ,#######,      ##                                
            ,#'     '#,  ##    ##  ,#'     '#,    #''#        ######   ,####,        
            ##       ##  ##   ,#'  ##            #'  '#       #        #'  '#        
            ##       ##  #######   ##           ,######,      #####,   #    #        
            '#,     ,#'  ##    ##  '#,     ,#' ,#      #,         ##   #,  ,#        
             '#######'   ##     ##  '#######'  #'      '#     #####' # '####'        



                  #######################################################
                  #                        -***-                        #
                  #          Department of theory and spectroscopy      #
                  #    Directorship and core code : Frank Neese         #
                  #        Max Planck Institute fuer Kohlenforschung    #
                  #                Kaiser Wilhelm Platz 1               #
                  #                 D-45470 Muelheim/Ruhr               #
                  #                      Germany                        #
                  #                                                     #
                  #                  All rights reserved                #
                  #                        -***-                        #
                  #######################################################


                         Program Version 5.0.3 -  RELEASE  -


 With contributions from (in alphabetic order):
   Daniel Aravena         : Magnetic Suceptibility
   Michael Atanasov       : Ab Initio Ligand Field Theory (pilot matlab implementation)
   Alexander A. Auer      : GIAO ZORA, VPT2 properties, NMR spectrum
   Ute Becker             : Parallelization
   Giovanni Bistoni       : ED, misc. LED, open-shell LED, HFLD
   Martin Brehm           : Molecular dynamics
   Dmytro Bykov           : SCF Hessian
   Vijay G. Chilkuri      : MRCI spin determinant printing, contributions to CSF-ICE
   Dipayan Datta          : RHF DLPNO-CCSD density
   Achintya Kumar Dutta   : EOM-CC, STEOM-CC
   Dmitry Ganyushin       : Spin-Orbit,Spin-Spin,Magnetic field MRCI
   Miquel Garcia          : C-PCM and meta-GGA Hessian, CC/C-PCM, Gaussian charge scheme
   Yang Guo               : DLPNO-NEVPT2, F12-NEVPT2, CIM, IAO-localization
   Andreas Hansen         : Spin unrestricted coupled pair/coupled cluster methods
   Benjamin Helmich-Paris : MC-RPA, TRAH-SCF, COSX integrals
   Lee Huntington         : MR-EOM, pCC
   Robert Izsak           : Overlap fitted RIJCOSX, COSX-SCS-MP3, EOM
   Marcus Kettner         : VPT2
   Christian Kollmar      : KDIIS, OOCD, Brueckner-CCSD(T), CCSD density, CASPT2, CASPT2-K
   Simone Kossmann        : Meta GGA functionals, TD-DFT gradient, OOMP2, MP2 Hessian
   Martin Krupicka        : Initial AUTO-CI
   Lucas Lang             : DCDCAS
   Marvin Lechner         : AUTO-CI (C++ implementation), FIC-MRCC
   Dagmar Lenk            : GEPOL surface, SMD
   Dimitrios Liakos       : Extrapolation schemes; Compound Job, initial MDCI parallelization
   Dimitrios Manganas     : Further ROCIS development; embedding schemes
   Dimitrios Pantazis     : SARC Basis sets
   Anastasios Papadopoulos: AUTO-CI, single reference methods and gradients
   Taras Petrenko         : DFT Hessian,TD-DFT gradient, ASA, ECA, R-Raman, ABS, FL, XAS/XES, NRVS
   Peter Pinski           : DLPNO-MP2, DLPNO-MP2 Gradient
   Christoph Reimann      : Effective Core Potentials
   Marius Retegan         : Local ZFS, SOC
   Christoph Riplinger    : Optimizer, TS searches, QM/MM, DLPNO-CCSD(T), (RO)-DLPNO pert. Triples
   Tobias Risthaus        : Range-separated hybrids, TD-DFT gradient, RPA, STAB
   Michael Roemelt        : Original ROCIS implementation
   Masaaki Saitow         : Open-shell DLPNO-CCSD energy and density
   Barbara Sandhoefer     : DKH picture change effects
   Avijit Sen             : IP-ROCIS
   Kantharuban Sivalingam : CASSCF convergence, NEVPT2, FIC-MRCI
   Bernardo de Souza      : ESD, SOC TD-DFT
   Georgi Stoychev        : AutoAux, RI-MP2 NMR, DLPNO-MP2 response
   Willem Van den Heuvel  : Paramagnetic NMR
   Boris Wezisla          : Elementary symmetry handling
   Frank Wennmohs         : Technical directorship


 We gratefully acknowledge several colleagues who have allowed us to
 interface, adapt or use parts of their codes:
   Stefan Grimme, W. Hujo, H. Kruse, P. Pracht,  : VdW corrections, initial TS optimization,
                  C. Bannwarth, S. Ehlert          DFT functionals, gCP, sTDA/sTD-DF
   Ed Valeev, F. Pavosevic, A. Kumar             : LibInt (2-el integral package), F12 methods
   Garnet Chan, S. Sharma, J. Yang, R. Olivares  : DMRG
   Ulf Ekstrom                                   : XCFun DFT Library
   Mihaly Kallay                                 : mrcc  (arbitrary order and MRCC methods)
   Jiri Pittner, Ondrej Demel                    : Mk-CCSD
   Frank Weinhold                                : gennbo (NPA and NBO analysis)
   Christopher J. Cramer and Donald G. Truhlar   : smd solvation model
   Lars Goerigk                                  : TD-DFT with DH, B97 family of functionals
   V. Asgeirsson, H. Jonsson                     : NEB implementation
   FAccTs GmbH                                   : IRC, NEB, NEB-TS, DLPNO-Multilevel, CI-OPT
                                                   MM, QMMM, 2- and 3-layer-ONIOM, Crystal-QMMM,
                                                   LR-CPCM, SF, NACMEs, symmetry and pop. for TD-DFT,
                                                   nearIR, NL-DFT gradient (VV10), updates on ESD,
                                                   ML-optimized integration grids
   S Lehtola, MJT Oliveira, MAL Marques          : LibXC Library
   Liviu Ungur et al                             : ANISO software


 Your calculation uses the libint2 library for the computation of 2-el integrals
 For citations please refer to: http://libint.valeyev.net

 Your ORCA version has been built with support for libXC version: 5.1.0
 For citations please refer to: https://tddft.org/programs/libxc/

 This ORCA versions uses:
   CBLAS   interface :  Fast vector & matrix operations
   LAPACKE interface :  Fast linear algebra routines
   SCALAPACK package :  Parallel linear algebra routines
   Shared memory     :  Shared parallel matrices
   BLAS/LAPACK       :  OpenBLAS 0.3.15  USE64BITINT DYNAMIC_ARCH NO_AFFINITY Zen SINGLE_THREADED
        Core in use  :  Zen
   Copyright (c) 2011-2014, The OpenBLAS Project


leaving
================================================================================

----- Orbital basis set information -----
================================================================================
                                        WARNINGS
                       Please study these warnings very carefully!
================================================================================


WARNING: Direct SCF is incompatible with Method<>HF and Method<>DFT
  ===> : conventional SCF is chosen

WARNING: The NDO methods need Guess=HUECKEL or Guess=HCORE or Guess=MOREAD
  ===> : Guess is set to Hueckel

WARNING: The NDO methods need %rel::SOCType==1
  ===> : %rel::SOCType is set to 1

WARNING: The NDO methods cannot have frozencore=1
  ===> : %method FrozenCore=0 end

WARNING: The NDO methods cannot be used with Shark
  ===> : Turning Shark off

WARNING: Geometry Optimization
  ===> : Switching off AutoStart
         For restart on a previous wavefunction, please use MOREAD
================================================================================
                                       INPUT FILE
================================================================================
NAME = calc.inp
|  1> !OPT AM1
|  2> *xyz 0 1
|  3> C    4.29180000   3.65880000   0.00000000
|  4> H    4.64850000   2.65000000   0.00000000
|  5> H    4.64850000   4.16320000   0.87070000
|  6> H    4.64850000   4.16320000  -0.87970000
|  7> H    3.22180000   3.65880000   0.00000000
|  8> *
|  9> %geom Scan
| 10> A 0 1 2 = 120.00, 130.00, 10
| 11> end
| 12> end
| 13> %pal
| 14> nprocs 1
| 15> endd                         ****END OF INPUT****
================================================================================

                       ******************************
                       *    Relaxed Surface Scan    *
                       ******************************

                Angle (  0,   1,   2):   range= 120.00000000 .. 130.00000000  steps =   10

There is 1 parameter to be scanned.
There will be   10 constrained geometry optimizations.


         *************************************************************
         *               RELAXED SURFACE SCAN STEP   1               *
         *                                                           *
         *           Angle (  0,   1,   2)  : 120.00000000           *
         *************************************************************

Geometry optimization settings:
Update method            Update   .... BFGS
Choice of coordinates    CoordSys .... Z-matrix Internals
Initial Hessian          InHess   .... Almoef's Model

Convergence Tolerances:
Energy Change            TolE     ....  5.0000e-06 Eh
Max. Gradient            TolMAXG  ....  3.0000e-04 Eh/bohr
RMS Gradient             TolRMSG  ....  1.0000e-04 Eh/bohr
Max. Displacement        TolMAXD  ....  4.0000e-03 bohr
RMS Displacement         TolRMSD  ....  2.0000e-03 bohr
Strict Convergence                ....  False
------------------------------------------------------------------------------
                        ORCA OPTIMIZATION COORDINATE SETUP
------------------------------------------------------------------------------

The optimization will be done in new redundant internal coordinates
Making redundant internal coordinates   ...  (new redundants) done
Evaluating the initial hessian          ...  (Almloef) done
Evaluating the coordinates              ...  done
Calculating the B-matrix                .... done
Calculating the G-matrix                .... done
Diagonalizing the G-matrix              .... done
Imposing constraints:
 Iter   0:  RMS(Cart)=    0.0213828635 RMS(Int)=    1.4370664653
 Iter   1:  RMS(Cart)=    0.0213828635 RMS(Int)=    1.3927109376
 Iter   2:  RMS(Cart)=    0.0213828635 RMS(Int)=    1.3470412300
 Iter   3:  RMS(Cart)=    0.0213828635 RMS(Int)=    1.3000796966
 Iter   4:  RMS(Cart)=    0.0213828635 RMS(Int)=    1.2518555821
 Iter   5:  RMS(Cart)=    0.0213828635 RMS(Int)=    1.2024043953
 Iter   6:  RMS(Cart)=    0.0213828635 RMS(Int)=    1.1517669478
 Iter   7:  RMS(Cart)=    0.0213828635 RMS(Int)=    1.0999880491
 Iter   8:  RMS(Cart)=    0.0213828635 RMS(Int)=    1.0471148733
 Iter   9:  RMS(Cart)=    0.0213828635 RMS(Int)=    0.9931950296
 Iter  10:  RMS(Cart)=    0.0213828635 RMS(Int)=    0.9382743929
 Iter  11:  RMS(Cart)=    0.0213828635 RMS(Int)=    0.8823947687
 Iter  12:  RMS(Cart)=    0.0213828635 RMS(Int)=    0.8255914844
 Iter  13:  RMS(Cart)=    0.0213828635 RMS(Int)=    0.7678910067
 Iter  14:  RMS(Cart)=    0.0213828635 RMS(Int)=    0.7093086956
 Iter  15:  RMS(Cart)=    0.0213828635 RMS(Int)=    0.6498468028
 Iter  16:  RMS(Cart)=    0.0213828635 RMS(Int)=    0.5894928236
 Iter  17:  RMS(Cart)=    0.0213828635 RMS(Int)=    0.5282183094
 Iter  18:  RMS(Cart)=    0.0213828635 RMS(Int)=    0.4659782455
 Iter  19:  RMS(Cart)=    0.0213828635 RMS(Int)=    0.4027111055
 Iter  20:  RMS(Cart)=    0.0213828635 RMS(Int)=    0.3383396994
 Iter  21:  RMS(Cart)=    0.0213828635 RMS(Int)=    0.2727729517
 Iter  22:  RMS(Cart)=    0.0213828635 RMS(Int)=    0.2059087568
 Iter  23:  RMS(Cart)=    0.0213828635 RMS(Int)=    0.1376380813
 Iter  24:  RMS(Cart)=    0.0147154815 RMS(Int)=    0.0897802025
 Iter  25:  RMS(Cart)=    0.0095987891 RMS(Int)=    0.0581590189
 Iter  26:  RMS(Cart)=    0.0062180318 RMS(Int)=    0.0374996017
 Iter  27:  RMS(Cart)=    0.0040092443 RMS(Int)=    0.0241044077
 Iter  28:  RMS(Cart)=    0.0025771063 RMS(Int)=    0.0154629265
 Iter  29:  RMS(Cart)=    0.0016532082 RMS(Int)=    0.0099065044
 Iter  30:  RMS(Cart)=    0.0010591472 RMS(Int)=    0.0063413839
 Iter  31:  RMS(Cart)=    0.0006779847 RMS(Int)=    0.0040570749
 Iter  32:  RMS(Cart)=    0.0004337594 RMS(Int)=    0.0025947262
 Iter  33:  RMS(Cart)=    0.0002774134 RMS(Int)=    0.0016591041
 Iter  34:  RMS(Cart)=    0.0001773820 RMS(Int)=    0.0010607037
 Iter  35:  RMS(Cart)=    0.0001134044 RMS(Int)=    0.0006780708
 Iter  36:  RMS(Cart)=    0.0000724955 RMS(Int)=    0.0004334417
 Iter  37:  RMS(Cart)=    0.0000463411 RMS(Int)=    0.0002770578
 Iter  38:  RMS(Cart)=    0.0000296214 RMS(Int)=    0.0001770923
 Iter  39:  RMS(Cart)=    0.0000189337 RMS(Int)=    0.0001131937
 Iter  40:  RMS(Cart)=    0.0000121020 RMS(Int)=    0.0000723504
 Iter  41:  RMS(Cart)=    0.0000077353 RMS(Int)=    0.0000462441
 Iter  42:  RMS(Cart)=    0.0000049442 RMS(Int)=    0.0000295577
 Iter  43:  RMS(Cart)=    0.0000031601 RMS(Int)=    0.0000188922
 Iter  44:  RMS(Cart)=    0.0000020199 RMS(Int)=    0.0000120752
 Iter  45:  RMS(Cart)=    0.0000012910 RMS(Int)=    0.0000077180
 Iter  46:  RMS(Cart)=    0.0000008252 RMS(Int)=    0.0000049331
 Iter  47:  RMS(Cart)=    0.0000005274 RMS(Int)=    0.0000031530
 Iter  48:  RMS(Cart)=    0.0000003371 RMS(Int)=    0.0000020153
 Iter  49:  RMS(Cart)=    0.0000002155 RMS(Int)=    0.0000012881
 Iter  50:  RMS(Cart)=    0.0000001377 RMS(Int)=    0.0000008233
 Iter  51:  RMS(Cart)=    0.0000000880 RMS(Int)=    0.0000005262
 Iter  52:  RMS(Cart)=    0.0000000563 RMS(Int)=    0.0000003363
 Iter  53:  RMS(Cart)=    0.0000000360 RMS(Int)=    0.0000002150
 Iter  54:  RMS(Cart)=    0.0000000230 RMS(Int)=    0.0000001374
 Iter  55:  RMS(Cart)=    0.0000000147 RMS(Int)=    0.0000000878
CONVERGED
The first mode is                       ....    2
The number of degrees of freedom        ....    9
Storing new coordinates                 .... done

    -----------------------------------------------------------------
                    Redundant Internal Coordinates


    -----------------------------------------------------------------
         Definition                    Initial Value    Approx d2E/dq
    -----------------------------------------------------------------
      1. B(H   1,C   0)                  1.1416         0.387545   
      2. B(H   2,C   0)                  1.7089         0.390984   
      3. B(H   3,C   0)                  1.0904         0.380564   
      4. B(H   4,C   0)                  1.0854         0.387554   
      5. A(H   2,C   0,H   3)          113.6016         0.297222   
      6. A(H   1,C   0,H   3)          115.6088         0.296807   
      7. A(H   2,C   0,H   4)          113.5659         0.298082   
      8. A(H   3,C   0,H   4)          128.7000         0.296808   
      9. A(H   1,C   0,H   2)           24.6545         0.298081   
     10. A(H   1,C   0,H   4)          115.6502         0.297664   
     11. A(C   0,H   1,H   2)          120.0000         0.154431 C 
    -----------------------------------------------------------------

Number of atoms                         .... 5
Number of degrees of freedom            .... 11

         *************************************************************
         *                GEOMETRY OPTIMIZATION CYCLE   1            *
         *************************************************************
---------------------------------
CARTESIAN COORDINATES (ANGSTROEM)
---------------------------------
  C      4.085537    3.697132   -0.313697
  H      4.745377    3.196680    0.471987
  H      4.997981    3.622905    1.129321
  H      4.614667    4.171161   -1.140894
  H      3.015537    3.606122   -0.155716

----------------------------
CARTESIAN COORDINATES (A.U.)
----------------------------
  NO LB      ZA    FRAG     MASS         X           Y           Z
   0 C     4.0000    0    12.011    7.720546    6.986567   -0.592801
   1 H     1.0000    0     1.008    8.967464    6.040850    0.891925
   2 H     1.0000    0     1.008    9.444816    6.846299    2.134107
   3 H     1.0000    0     1.008    8.720457    7.882352   -2.155978
   4 H     1.0000    0     1.008    5.698539    6.814582   -0.294261

--------------------------------
INTERNAL COORDINATES (ANGSTROEM)
--------------------------------
 C      0   0   0     0.000000000000     0.00000000     0.00000000
 H      1   0   0     1.070005761667     0.00000000     0.00000000
 H      1   2   0     1.067601395653   109.51505982     0.00000000
 H      1   2   3     1.074954110648   109.37622264   120.08276913
 H      1   2   3     1.070000000000   109.47300474   239.91392657

---------------------------
INTERNAL COORDINATES (A.U.)
---------------------------
 C      0   0   0     0.000000000000     0.00000000     0.00000000
 H      1   0   0     2.022017851268     0.00000000     0.00000000
 H      1   2   0     2.017474257976   109.51505982     0.00000000
 H      1   2   3     2.031368875658   109.37622264   120.08276913
 H      1   2   3     2.022006963296   109.47300474   239.91392657

----------------------------
SLATER BASIS SET DIM=   8
----------------------------
  0 C     2 shells
 l=0 nsto= 1
    2       1.808665000000        1.000000000000
 l=1 nsto= 1
    2       1.685116000000        1.000000000000
  1 H     1 shells
 l=0 nsto= 1
    1       1.188078000000        1.000000000000
  2 H     1 shells
 l=0 nsto= 1
    1       1.188078000000        1.000000000000
  3 H     1 shells
 l=0 nsto= 1
    1       1.188078000000        1.000000000000
  4 H     1 shells
 l=0 nsto= 1
    1       1.188078000000        1.000000000000
------------------------------------------------------------------------------
                           ORCA NDO INTEGRAL CALCULATION
------------------------------------------------------------------------------

--------------
NDO PARAMETERS
--------------

Gamma integral treatment              ... MOPAC
Nuclear repulsuion treatment          ... AM1-style
Interaction factors:
s-s (sigma) =    1.0000
s-p (sigma) =    1.0000
s-d (sigma) =    1.0000
p-p (sigma) =    1.0000  p-p(pi) =    1.0000
p-d (sigma) =    1.0000  p-d(pi) =    1.0000
d-d (sigma) =    1.0000  d-d(pi) =    1.0000 d-d (delta) =    1.0000

--------------------------
Parameters for Element H :
--------------------------
 One-electron parameters (in eV)
  U(s)  =   -11.396427 Beta(s) =     6.173787 Neff(s) =     1.000000
 One-center electron repulsion parameters (in eV)
  G(s,s)=    12.848000
--------------------------
Parameters for Element C :
--------------------------
 One-electron parameters (in eV)
  U(s)  =   -52.028658 Beta(s) =    15.715783 Neff(s) =     2.000000
  U(p)  =   -39.614239 Beta(p) =     7.719283 Neff(p) =     2.000000 
 One-center electron repulsion parameters (in eV)
  G(s,s)=    12.230000
  G(s,p)=    11.470000 G(p,p)  =    10.253300
 Slater-Condon parameters (in eV)
 F2(p,p)=     5.1667 G1(s,p)=    7.2900

 Number of atoms                    ....    5
 Number of basis functions          ....    8

 Overlap integrals                  .... done
 One electron matrix                .... done
 Nuclear repulsion                  .... done
 Integral list                      .... done
 Electron-electron repulsion        .... done
-------------------------------------------------------------------------------
                                 ORCA SCF
-------------------------------------------------------------------------------

------------
SCF SETTINGS
------------
Hamiltonian:
 ZDO-Hamiltonian        Method          .... NDDO


General Settings:
 Integral files         IntName         .... calc
 Hartree-Fock type      HFTyp           .... RHF
 Total Charge           Charge          ....    0
 Multiplicity           Mult            ....    1
 Number of Electrons    NEL             ....    8
 Basis Dimension        Dim             ....    8
 Nuclear Repulsion      ENuc            ....      7.0444540466 Eh

Convergence Acceleration:
 DIIS                   CNVDIIS         .... on
   Start iteration      DIISMaxIt       ....    12
   Startup error        DIISStart       ....  0.200000
   # of expansion vecs  DIISMaxEq       ....     5
   Bias factor          DIISBfac        ....   1.050
   Max. coefficient     DIISMaxC        ....  10.000
 Trust-Rad. Augm. Hess. CNVTRAH         .... off
 SOSCF                  CNVSOSCF        .... on
   Start iteration      SOSCFMaxIt      ....   150
   Startup grad/error   SOSCFStart      ....  0.003300
 Level Shifting         CNVShift        .... on
   Level shift para.    LevelShift      ....    0.2500
   Turn off err/grad.   ShiftErr        ....    0.0010
 Zerner damping         CNVZerner       .... off
 Static damping         CNVDamp         .... on
   Fraction old density DampFac         ....    0.7000
   Max. Damping (<1)    DampMax         ....    0.9800
   Min. Damping (>=0)   DampMin         ....    0.0000
   Turn off err/grad.   DampErr         ....    0.1000
 Fernandez-Rico         CNVRico         .... off

SCF Procedure:
 Maximum # iterations   MaxIter         ....   125
 SCF integral mode      SCFMode         .... Conventional
 Integral Buffer length BufferLength    .... 1048576
 Integral index format  IndFormat       ....     0
 Integral value format  ValFormat       ....     0
 Integral Storage       Thresh          ....  2.500e-11 Eh

Convergence Tolerance:
 Convergence Check Mode ConvCheckMode   .... Total+1el-Energy
 Convergence forced     ConvForced      .... 0
 Energy Change          TolE            ....  1.000e-08 Eh
 1-El. energy change                    ....  1.000e-05 Eh
 Orbital Gradient       TolG            ....  1.000e-05
 Orbital Rotation angle TolX            ....  1.000e-05
 DIIS Error             TolErr          ....  5.000e-07


Diagonalization of the overlap matrix:
Smallest eigenvalue                        ... 2.355e-01
Time for diagonalization                   ...    0.000 sec
Threshold for overlap eigenvalues          ... 1.000e-08
Number of eigenvalues below threshold      ... 0
Time for construction of square roots      ...    0.000 sec
Total time needed                          ...    0.000 sec

-------------------------------
INITIAL GUESS: EXTENDED HUECKEL
-------------------------------
EHT matrix was read from disk
EHT matrix was diagonalized
Initial density was built
                      ------------------
                      INITIAL GUESS DONE
                      ------------------

 InCore treatment chosen:
   Memory dedicated               ...    1024 MB
   Memory needed                  ...      0 MB
   Number of tiny    integrals    ...       0
   Number of small   integrals    ...       0
   Number of regular integrals    ...      66

--------------
SCF ITERATIONS
--------------
ITER       Energy         Delta-E        Max-DP      RMS-DP      [F,P]     Damp
  0     -6.5360155681   0.000000000000 0.02127196  0.00622050  0.0488091 0.7000
  1     -6.5391198783  -0.003104310266 0.02363485  0.00663633  0.0431234 0.7000
                               ***Turning on DIIS***
  2     -6.5419565398  -0.002836661415 0.07096689  0.01945203  0.0370192 0.0000
  3     -6.5362721728   0.005684366929 0.02999100  0.00819678  0.0187959 0.0000
  4     -6.5447412133  -0.008469040525 0.01983349  0.00490312  0.0088125 0.0000
  5     -6.5493398426  -0.004598629227 0.01293540  0.00291662  0.0046993 0.0000
  6     -6.5512649702  -0.001925127582 0.00853659  0.00192670  0.0034442 0.0000
                      *** Initiating the SOSCF procedure ***
                           *** Shutting down DIIS ***
                      *** Re-Reading the Fockian *** 
                      *** Removing any level shift *** 
ITER      Energy       Delta-E        Grad      Rot      Max-DP    RMS-DP
  7     -6.55181805  -0.0005530844  0.003194  0.003194  0.006626  0.001667
  8     -6.55294430  -0.0011262421  0.001281  0.004133  0.004751  0.001107
  9     -6.55296363  -0.0000193333  0.000886  0.011756  0.014362  0.003164
 10     -6.55299068  -0.0000270475  0.000298  0.001151  0.001850  0.000402
 11     -6.55299213  -0.0000014541  0.000173  0.000769  0.001003  0.000258
 12     -6.55299264  -0.0000005087  0.000061  0.000206  0.000315  0.000074
 13     -6.55299270  -0.0000000623  0.000038  0.000119  0.000198  0.000049
 14     -6.55299272  -0.0000000194  0.000009  0.000020  0.000030  0.000009
                 **** Energy Check signals convergence ****
              ***Rediagonalizing the Fockian in SOSCF/NRSCF***

               *****************************************************
               *                     SUCCESS                       *
               *           SCF CONVERGED AFTER  15 CYCLES          *
               *****************************************************


----------------
TOTAL SCF ENERGY
----------------

Total Energy       :           -6.55299272 Eh            -178.31600 eV

Components:
Nuclear Repulsion  :            7.04445405 Eh             191.68934 eV
Electronic Energy  :          -13.59744677 Eh            -370.00534 eV
One Electron Energy:          -22.46979556 Eh            -611.43422 eV
Two Electron Energy:            8.87234879 Eh             241.42888 eV


---------------
SCF CONVERGENCE
---------------

  Last Energy change         ...   -1.2296e-09  Tolerance :   1.0000e-08
  Last MAX-Density change    ...    9.4675e-06  Tolerance :   1.0000e-07
  Last RMS-Density change    ...    3.5765e-06  Tolerance :   5.0000e-09
  Last Orbital Gradient      ...    3.2986e-06  Tolerance :   1.0000e-05
  Last Orbital Rotation      ...    9.7184e-06  Tolerance :   1.0000e-05

             **** THE GBW FILE WAS UPDATED (calc.gbw) ****
             **** DENSITY calc.scfp WAS UPDATED ****
             **** ENERGY FILE WAS UPDATED (calc.en.tmp) ****
             **** THE GBW FILE WAS UPDATED (calc.gbw) ****
             **** DENSITY calc.scfp WAS UPDATED ****
----------------
ORBITAL ENERGIES
----------------

  NO   OCC          E(Eh)            E(eV) 
   0   2.0000      -1.006863       -27.3981 
   1   2.0000      -0.556817       -15.1518 
   2   2.0000      -0.503578       -13.7031 
   3   2.0000      -0.295289        -8.0352 
   4   0.0000       0.014309         0.3894 
   5   0.0000       0.161074         4.3830 
   6   0.0000       0.187738         5.1086 
   7   0.0000       0.207918         5.6577 

                    ********************************
                    * MULLIKEN POPULATION ANALYSIS *
                    ********************************

-----------------------
MULLIKEN ATOMIC CHARGES
-----------------------
   0 C :   -0.629464
   1 H :    0.200096
   2 H :    0.046128
   3 H :    0.191253
   4 H :    0.191987
Sum of atomic charges:   -0.0000000

--------------------------------
MULLIKEN REDUCED ORBITAL CHARGES
--------------------------------
  0 C s       :     1.515843  s :     1.515843
      pz      :     0.663564  p :     3.113621
      px      :     0.880463
      py      :     1.569594
  1 H s       :     0.799904  s :     0.799904
  2 H s       :     0.953872  s :     0.953872
  3 H s       :     0.808747  s :     0.808747
  4 H s       :     0.808013  s :     0.808013


                     *******************************
                     * LOEWDIN POPULATION ANALYSIS *
                     *******************************

----------------------
LOEWDIN ATOMIC CHARGES
----------------------
   0 C :   -0.503262
   1 H :    0.168385
   2 H :    0.063956
   3 H :    0.135522
   4 H :    0.135399

-------------------------------
LOEWDIN REDUCED ORBITAL CHARGES
-------------------------------
  0 C s       :     1.299853  s :     1.299853
      pz      :     0.686084  p :     3.203408
      px      :     0.917950
      py      :     1.599375
  1 H s       :     0.831615  s :     0.831615
  2 H s       :     0.936044  s :     0.936044
  3 H s       :     0.864478  s :     0.864478
  4 H s       :     0.864601  s :     0.864601


                      *****************************
                      * MAYER POPULATION ANALYSIS *
                      *****************************

  NA   - Mulliken gross atomic population
  ZA   - Total nuclear charge
  QA   - Mulliken gross atomic charge
  VA   - Mayer's total valence
  BVA  - Mayer's bonded valence
  FA   - Mayer's free valence

  ATOM       NA         ZA         QA         VA         BVA        FA
  0 C      6.4754     4.0000    -2.4754     1.7876     9.1558    -7.3682
  1 H      1.6544     1.0000    -0.6544     0.5718     4.0500    -3.4782
  2 H      1.4486     1.0000    -0.4486     0.7988     3.2239    -2.4251
  3 H      1.4812     1.0000    -0.4812     0.7685     2.6748    -1.9063
  4 H      1.4843     1.0000    -0.4843     0.7655     2.6857    -1.9203

  Mayer bond orders larger than 0.100000
B(  0-C ,  1-H ) :   2.3102 B(  0-C ,  2-H ) :   1.5241 B(  0-C ,  3-H ) :   2.6555 
B(  0-C ,  4-H ) :   2.6660 B(  1-H ,  2-H ) :   1.7014 

-------
TIMINGS
-------

Total SCF time: 0 days 0 hours 0 min 0 sec 

Total time                  ....       0.120 sec
Sum of individual times     ....       0.011 sec  (  9.5%)

Fock matrix formation       ....       0.010 sec  (  8.6%)
Diagonalization             ....       0.000 sec  (  0.2%)
Density matrix formation    ....       0.000 sec  (  0.0%)
Population analysis         ....       0.000 sec  (  0.3%)
Initial guess               ....       0.000 sec  (  0.1%)
Orbital Transformation      ....       0.000 sec  (  0.0%)
Orbital Orthonormalization  ....       0.000 sec  (  0.0%)
DIIS solution               ....       0.000 sec  (  0.2%)
SOSCF solution              ....       0.000 sec  (  0.2%)

Maximum memory used throughout the entire SCF-calculation: 222.8 MB

-------------------------   --------------------
FINAL SINGLE POINT ENERGY        -6.552992723115
-------------------------   --------------------

------------------------------------------------------------------------------
                          SCF GRADIENT FOR NDO METHODS
------------------------------------------------------------------------------

The cartesian gradient:
   1   C   :   -0.009817277    0.004643980   -0.007614914
   2   H   :   -0.007491275    0.044356721    0.013481096
   3   H   :    0.019731941   -0.035044065    0.011999893
   4   H   :    0.004316067   -0.004553291   -0.013139573
   5   H   :   -0.006739457   -0.009403344   -0.004726502

Norm of the cartesian gradient     ...    0.067163501
RMS gradient                       ...    0.017341541
MAX gradient                       ...    0.044356721
------------------------------------------------------------------------------
                         ORCA GEOMETRY RELAXATION STEP
------------------------------------------------------------------------------

Reading the OPT-File                    .... done
Getting information on internals        .... done
Copying old internal coords+grads       .... done
Making the new internal coordinates     .... (new redundants).... done
Validating the new internal coordinates .... (new redundants).... done
Calculating the B-matrix                .... done
Calculating the G,G- and P matrices     .... done
Transforming gradient to internals      .... done
Projecting the internal gradient        .... done
Number of atoms                         ....   5
Number of internal coordinates          ....  11
Current Energy                          ....    -6.552992723 Eh
Current gradient norm                   ....     0.067163501 Eh/bohr
Maximum allowed component of the step   ....  0.300
Current trust radius                    ....  0.300
Evaluating the initial hessian          ....  (Almloef) done
Projecting the Hessian                  .... done
Forming the augmented Hessian           .... done
Diagonalizing the augmented Hessian     .... done
Last element of RFO vector              ....  0.950527543
Lowest eigenvalues of augmented Hessian:
 -0.026605587  0.044338873  0.209855003  0.229868860  0.282702250
Length of the computed step             ....  0.326808299
Warning: the length of the step is outside the trust region - taking restricted step instead
The input lambda is                     ....    -0.026606
   iter:   1  x=   -0.045810  g=    0.874994 f(x)=     0.016804
   iter:   2  x=   -0.048464  g=    0.693309 f(x)=     0.001840
   iter:   3  x=   -0.048506  g=    0.672472 f(x)=     0.000028
   iter:   4  x=   -0.048506  g=    0.672154 f(x)=     0.000000
   iter:   5  x=   -0.048506  g=    0.672154 f(x)=     0.000000
The output lambda is                    ....    -0.048506 (5 iterations)
The final length of the internal step   ....  0.300000000
Converting the step to cartesian space:
 Initial RMS(Int)=    0.0904534034
Transforming coordinates:
 Iter   0:  RMS(Cart)=    0.2047796482 RMS(Int)=    0.1903599771
 Iter   1:  RMS(Cart)=    0.1119338183 RMS(Int)=    0.1707691668
 Iter   2:  RMS(Cart)=    0.0561649396 RMS(Int)=    0.0781503290
 Iter   3:  RMS(Cart)=    0.0151471462 RMS(Int)=    0.0218420451
 Iter   4:  RMS(Cart)=    0.0060306345 RMS(Int)=    0.0087666254
 Iter   5:  RMS(Cart)=    0.0028281766 RMS(Int)=    0.0041298157
 Iter   6:  RMS(Cart)=    0.0014675644 RMS(Int)=    0.0021433210
 Iter   7:  RMS(Cart)=    0.0007878608 RMS(Int)=    0.0011512303
 Iter   8:  RMS(Cart)=    0.0004295929 RMS(Int)=    0.0006276114
 Iter   9:  RMS(Cart)=    0.0002351729 RMS(Int)=    0.0003436198
 Iter  10:  RMS(Cart)=    0.0001290404 RMS(Int)=    0.0001885339
 Iter  11:  RMS(Cart)=    0.0000708288 RMS(Int)=    0.0001034880
 Iter  12:  RMS(Cart)=    0.0000388922 RMS(Int)=    0.0000568243
 Iter  13:  RMS(Cart)=    0.0000213555 RMS(Int)=    0.0000312024
 Iter  14:  RMS(Cart)=    0.0000117272 RMS(Int)=    0.0000171343
 Iter  15:  RMS(Cart)=    0.0000064397 RMS(Int)=    0.0000094090
 Iter  16:  RMS(Cart)=    0.0000035363 RMS(Int)=    0.0000051668
 Iter  17:  RMS(Cart)=    0.0000019419 RMS(Int)=    0.0000028373
 Iter  18:  RMS(Cart)=    0.0000010664 RMS(Int)=    0.0000015581
 Iter  19:  RMS(Cart)=    0.0000005856 RMS(Int)=    0.0000008556
 Iter  20:  RMS(Cart)=    0.0000003216 RMS(Int)=    0.0000004698
 Iter  21:  RMS(Cart)=    0.0000001766 RMS(Int)=    0.0000002580
 Iter  22:  RMS(Cart)=    0.0000000970 RMS(Int)=    0.0000001417
Imposing constraints:
 Iter   0:  RMS(Cart)=    0.0002794152 RMS(Int)=    0.0004567684
 Iter   1:  RMS(Cart)=    0.0000816664 RMS(Int)=    0.0001336670
 Iter   2:  RMS(Cart)=    0.0000238986 RMS(Int)=    0.0000391299
 Iter   3:  RMS(Cart)=    0.0000069961 RMS(Int)=    0.0000114561
 Iter   4:  RMS(Cart)=    0.0000020483 RMS(Int)=    0.0000033541
 Iter   5:  RMS(Cart)=    0.0000005997 RMS(Int)=    0.0000009820
 Iter   6:  RMS(Cart)=    0.0000001756 RMS(Int)=    0.0000002875
 Iter   7:  RMS(Cart)=    0.0000000514 RMS(Int)=    0.0000000842
CONVERGED
done
Storing new coordinates                 .... done

                                .--------------------.
          ----------------------|Geometry convergence|-------------------------
          Item                value                   Tolerance       Converged
          ---------------------------------------------------------------------
          RMS gradient        0.0247606200            0.0001000000      NO
          MAX gradient        0.0499259703            0.0003000000      NO
          RMS step            0.0904534034            0.0020000000      NO
          MAX step            0.1931508179            0.0040000000      NO
          ........................................................
          Max(Bonds)      0.0251      Max(Angles)   11.07
          Max(Dihed)        0.00      Max(Improp)    0.00
          ---------------------------------------------------------------------

The optimization has not yet converged - more geometry cycles are needed


    ---------------------------------------------------------------------------
                         Redundant Internal Coordinates
                            (Angstroem and degrees)

        Definition                    Value    dE/dq     Step     New-Value
    ----------------------------------------------------------------------------
     1. B(H   1,C   0)                1.1416  0.008808 -0.0251    1.1164   
     2. B(H   2,C   0)                1.7089  0.006622 -0.0094    1.6995   
     3. B(H   3,C   0)                1.0904  0.010083 -0.0131    1.0773   
     4. B(H   4,C   0)                1.0854  0.006744 -0.0086    1.0768   
     5. A(H   2,C   0,H   3)          113.60  0.049951  -11.07    102.53   
     6. A(H   1,C   0,H   3)          115.61 -0.018540    3.37    118.98   
     7. A(H   2,C   0,H   4)          113.57  0.049825  -11.02    102.55   
     8. A(H   3,C   0,H   4)          128.70  0.025519   -4.13    124.57   
     9. A(H   1,C   0,H   2)           24.65 -0.026161    0.67     25.33   
    10. A(H   1,C   0,H   4)          115.65 -0.018628    3.38    119.03   
    11. A(C   0,H   1,H   2)          120.00  0.041860   -0.00    120.00 C 
    ----------------------------------------------------------------------------

         *************************************************************
         *                GEOMETRY OPTIMIZATION CYCLE   2            *
         *************************************************************
---------------------------------
CARTESIAN COORDINATES (ANGSTROEM)
---------------------------------
  C      4.103431    3.502320   -0.397884
  H      4.744553    3.167909    0.453377
  H      4.934692    3.702874    1.070422
  H      4.591108    4.225738   -1.029853
  H      3.085317    3.695159   -0.105064

----------------------------
CARTESIAN COORDINATES (A.U.)
----------------------------
  NO LB      ZA    FRAG     MASS         X           Y           Z
   0 C     4.0000    0    12.011    7.754360    6.618426   -0.751891
   1 H     1.0000    0     1.008    8.965906    5.986481    0.856759
   2 H     1.0000    0     1.008    9.325216    6.997418    2.022805
   3 H     1.0000    0     1.008    8.675936    7.985487   -1.946139
   4 H     1.0000    0     1.008    5.830404    6.982838   -0.198542

--------------------------------
INTERNAL COORDINATES (ANGSTROEM)
--------------------------------
 C      0   0   0     0.000000000000     0.00000000     0.00000000
 H      1   0   0     1.116921857295     0.00000000     0.00000000
 H      2   1   0     0.838501358739   120.00000469     0.00000000
 H      1   2   3     1.077286734467   112.84920059    68.41922877
 H      1   2   3     1.076793899090   112.89789902   291.66428408

---------------------------
INTERNAL COORDINATES (A.U.)
---------------------------
 C      0   0   0     0.000000000000     0.00000000     0.00000000
 H      1   0   0     2.110676423279     0.00000000     0.00000000
 H      2   1   0     1.584537930938   120.00000469     0.00000000
 H      1   2   3     2.035776895849   112.84920059    68.41922877
 H      1   2   3     2.034845571957   112.89789902   291.66428408

------------------------------------------------------------------------------
                           ORCA NDO INTEGRAL CALCULATION
------------------------------------------------------------------------------

--------------
NDO PARAMETERS
--------------

Gamma integral treatment              ... MOPAC
Nuclear repulsuion treatment          ... AM1-style
Interaction factors:
s-s (sigma) =    1.0000
s-p (sigma) =    1.0000
s-d (sigma) =    1.0000
p-p (sigma) =    1.0000  p-p(pi) =    1.0000
p-d (sigma) =    1.0000  p-d(pi) =    1.0000
d-d (sigma) =    1.0000  d-d(pi) =    1.0000 d-d (delta) =    1.0000

--------------------------
Parameters for Element H :
--------------------------
 One-electron parameters (in eV)
  U(s)  =   -11.396427 Beta(s) =     6.173787 Neff(s) =     1.000000
 One-center electron repulsion parameters (in eV)
  G(s,s)=    12.848000
--------------------------
Parameters for Element C :
--------------------------
 One-electron parameters (in eV)
  U(s)  =   -52.028658 Beta(s) =    15.715783 Neff(s) =     2.000000
  U(p)  =   -39.614239 Beta(p) =     7.719283 Neff(p) =     2.000000 
 One-center electron repulsion parameters (in eV)
  G(s,s)=    12.230000
  G(s,p)=    11.470000 G(p,p)  =    10.253300
 Slater-Condon parameters (in eV)
 F2(p,p)=     5.1667 G1(s,p)=    7.2900

 Number of atoms                    ....    5
 Number of basis functions          ....    8

 Overlap integrals                  .... done
 One electron matrix                .... done
 Nuclear repulsion                  .... done
 Integral list                      .... done
 Electron-electron repulsion        .... done

Diagonalization of the overlap matrix:
Smallest eigenvalue                        ... 2.310e-01
Time for diagonalization                   ...    0.000 sec
Threshold for overlap eigenvalues          ... 1.000e-08
Number of eigenvalues below threshold      ... 0
Time for construction of square roots      ...    0.000 sec
Total time needed                          ...    0.000 sec


 InCore treatment chosen:
   Memory dedicated               ...    1024 MB
   Memory needed                  ...      0 MB
   Number of tiny    integrals    ...       0
   Number of small   integrals    ...       0
   Number of regular integrals    ...      66

--------------
SCF ITERATIONS
--------------
ITER       Energy         Delta-E        Max-DP      RMS-DP      [F,P]     Damp
  0     -6.5397825223   0.000000000000 0.01672266  0.00448648  0.0520911 0.7000
  1     -6.5423307421  -0.002548219754 0.01883760  0.00513763  0.0470070 0.7000
                               ***Turning on DIIS***
  2     -6.5449367656  -0.002606023539 0.05842862  0.01619773  0.0414486 0.0000
  3     -6.5609496252  -0.016012859571 0.04514678  0.01348950  0.0246843 0.0000
  4     -6.5634248561  -0.002475230915 0.03115775  0.00852298  0.0124107 0.0000
  5     -6.5632353693   0.000189486837 0.01912770  0.00521735  0.0059373 0.0000
  6     -6.5622964857   0.000938883600 0.01036005  0.00303883  0.0027520 0.0000
                      *** Initiating the SOSCF procedure ***
                           *** Shutting down DIIS ***
                      *** Re-Reading the Fockian *** 
                      *** Removing any level shift *** 
ITER      Energy       Delta-E        Grad      Rot      Max-DP    RMS-DP
  7     -6.56149414   0.0008023483  0.003275  0.003275  0.008031  0.001925
  8     -6.56005741   0.0014367231  0.001295  0.003927  0.005383  0.001105
  9     -6.56007977  -0.0000223583  0.000833  0.009041  0.013102  0.002664
 10     -6.56010391  -0.0000241330  0.000196  0.000387  0.000603  0.000149
 11     -6.56010429  -0.0000003892  0.000076  0.000180  0.000337  0.000082
 12     -6.56010437  -0.0000000738  0.000016  0.000028  0.000048  0.000015
 13     -6.56010437  -0.0000000035  0.000007  0.000022  0.000029  0.000010
                 **** Energy Check signals convergence ****
              ***Rediagonalizing the Fockian in SOSCF/NRSCF***

               *****************************************************
               *                     SUCCESS                       *
               *           SCF CONVERGED AFTER  14 CYCLES          *
               *****************************************************

Total Energy       :           -6.56010437 Eh            -178.50952 eV
  Last Energy change         ...   -9.2668e-10  Tolerance :   1.0000e-08
  Last MAX-Density change    ...    6.8693e-06  Tolerance :   1.0000e-07
             **** THE GBW FILE WAS UPDATED (calc.gbw) ****
             **** DENSITY calc.scfp WAS UPDATED ****
             **** ENERGY FILE WAS UPDATED (calc.en.tmp) ****
             **** THE GBW FILE WAS UPDATED (calc.gbw) ****
             **** DENSITY calc.scfp WAS UPDATED ****
Total SCF time: 0 days 0 hours 0 min 0 sec 

Maximum memory used throughout the entire SCF-calculation: 222.8 MB

-------------------------   --------------------
FINAL SINGLE POINT ENERGY        -6.560104373037
-------------------------   --------------------

------------------------------------------------------------------------------
                          SCF GRADIENT FOR NDO METHODS
------------------------------------------------------------------------------

The cartesian gradient:
   1   C   :    0.001018027   -0.021416299   -0.010008742
   2   H   :   -0.025995727    0.048860901   -0.014294970
   3   H   :    0.015050069   -0.020491796    0.012727872
   4   H   :   -0.002925742   -0.006178333    0.010588560
   5   H   :    0.012853374   -0.000774473    0.000987280

Norm of the cartesian gradient     ...    0.070437425
RMS gradient                       ...    0.018186865
MAX gradient                       ...    0.048860901
------------------------------------------------------------------------------
                         ORCA GEOMETRY RELAXATION STEP
------------------------------------------------------------------------------

Reading the OPT-File                    .... done
Getting information on internals        .... done
Copying old internal coords+grads       .... done
Making the new internal coordinates     .... (new redundants).... done
Validating the new internal coordinates .... (new redundants).... done
Calculating the B-matrix                .... done
Calculating the G,G- and P matrices     .... done
Transforming gradient to internals      .... done
Projecting the internal gradient        .... done
Number of atoms                         ....   5
Number of internal coordinates          ....  11
Current Energy                          ....    -6.560104373 Eh
Current gradient norm                   ....     0.070437425 Eh/bohr
Maximum allowed component of the step   ....  0.300
Current trust radius                    ....  0.300
Updating the Hessian (BFGS)             .... done
Forming the augmented Hessian           .... done
Diagonalizing the augmented Hessian     .... done
Last element of RFO vector              ....  0.996724377
Lowest eigenvalues of augmented Hessian:
 -0.001736911  0.044456329  0.187601869  0.209859705  0.271611261
Length of the computed step             ....  0.081139239
The final length of the internal step   ....  0.081139239
Converting the step to cartesian space:
 Initial RMS(Int)=    0.0244644010
Transforming coordinates:
 Iter   0:  RMS(Cart)=    0.0248732521 RMS(Int)=    0.0243268098
 Iter   1:  RMS(Cart)=    0.0004495624 RMS(Int)=    0.0005499145
 Iter   2:  RMS(Cart)=    0.0000257289 RMS(Int)=    0.0000335502
 Iter   3:  RMS(Cart)=    0.0000013873 RMS(Int)=    0.0000018218
 Iter   4:  RMS(Cart)=    0.0000000737 RMS(Int)=    0.0000000968
Imposing constraints:
 Iter   0:  RMS(Cart)=    0.0001937234 RMS(Int)=    0.0002980876
 Iter   1:  RMS(Cart)=    0.0000516558 RMS(Int)=    0.0000794113
 Iter   2:  RMS(Cart)=    0.0000137612 RMS(Int)=    0.0000211502
 Iter   3:  RMS(Cart)=    0.0000036651 RMS(Int)=    0.0000056327
 Iter   4:  RMS(Cart)=    0.0000009761 RMS(Int)=    0.0000015001
 Iter   5:  RMS(Cart)=    0.0000002600 RMS(Int)=    0.0000003995
 Iter   6:  RMS(Cart)=    0.0000000692 RMS(Int)=    0.0000001064
 Iter   7:  RMS(Cart)=    0.0000000184 RMS(Int)=    0.0000000283
CONVERGED
done
Storing new coordinates                 .... done

                                .--------------------.
          ----------------------|Geometry convergence|-------------------------
          Item                value                   Tolerance       Converged
          ---------------------------------------------------------------------
          Energy change      -0.0071116499            0.0000050000      NO
          RMS gradient        0.0073185176            0.0001000000      NO
          MAX gradient        0.0122185034            0.0003000000      NO
          RMS step            0.0244644010            0.0020000000      NO
          MAX step            0.0396603249            0.0040000000      NO
          ........................................................
          Max(Bonds)      0.0210      Max(Angles)    1.41
          Max(Dihed)        0.00      Max(Improp)    0.00
          ---------------------------------------------------------------------

The optimization has not yet converged - more geometry cycles are needed


    ---------------------------------------------------------------------------
                         Redundant Internal Coordinates
                            (Angstroem and degrees)

        Definition                    Value    dE/dq     Step     New-Value
    ----------------------------------------------------------------------------
     1. B(H   1,C   0)                1.1169 -0.019615  0.0189    1.1358   
     2. B(H   2,C   0)                1.6992  0.002250  0.0210    1.7201   
     3. B(H   3,C   0)                1.0773 -0.011684  0.0141    1.0914   
     4. B(H   4,C   0)                1.0768 -0.012025  0.0143    1.0911   
     5. A(H   2,C   0,H   3)          101.90 -0.003979    1.40    103.30   
     6. A(H   1,C   0,H   3)          112.85 -0.007922    1.14    113.99   
     7. A(H   2,C   0,H   4)          101.91 -0.004015    1.41    103.32   
     8. A(H   3,C   0,H   4)          117.86 -0.004821    0.99    118.85   
     9. A(H   1,C   0,H   2)           25.30 -0.015956   -0.17     25.13   
    10. A(H   1,C   0,H   4)          112.90 -0.007841    1.13    114.03   
    11. A(C   0,H   1,H   2)          120.00  0.038112   -0.00    120.00 C 
    ----------------------------------------------------------------------------

         *************************************************************
         *                GEOMETRY OPTIMIZATION CYCLE   3            *
         *************************************************************
---------------------------------
CARTESIAN COORDINATES (ANGSTROEM)
---------------------------------
  C      4.100944    3.515906   -0.394263
  H      4.753421    3.163226    0.465333
  H      4.950521    3.694363    1.091092
  H      4.593529    4.230314   -1.056217
  H      3.060685    3.690192   -0.114944

----------------------------
CARTESIAN COORDINATES (A.U.)
----------------------------
  NO LB      ZA    FRAG     MASS         X           Y           Z
   0 C     4.0000    0    12.011    7.749661    6.644099   -0.745050
   1 H     1.0000    0     1.008    8.982665    5.977631    0.879351
   2 H     1.0000    0     1.008    9.355129    6.981334    2.061864
   3 H     1.0000    0     1.008    8.680511    7.994135   -1.995961
   4 H     1.0000    0     1.008    5.783856    6.973452   -0.217213

--------------------------------
INTERNAL COORDINATES (ANGSTROEM)
--------------------------------
 C      0   0   0     0.000000000000     0.00000000     0.00000000
 H      1   0   0     1.135348144976     0.00000000     0.00000000
 H      2   1   0     0.844114175348   119.99999824     0.00000000
 H      1   2   3     1.091421688570   113.77568815    70.14180954
 H      1   2   3     1.091115821257   113.81013893   289.88700674

---------------------------
INTERNAL COORDINATES (A.U.)
---------------------------
 C      0   0   0     0.000000000000     0.00000000     0.00000000
 H      1   0   0     2.145497060660     0.00000000     0.00000000
 H      2   1   0     1.595144617169   119.99999824     0.00000000
 H      1   2   3     2.062488088019   113.77568815    70.14180954
 H      1   2   3     2.061910082565   113.81013893   289.88700674

------------------------------------------------------------------------------
                           ORCA NDO INTEGRAL CALCULATION
------------------------------------------------------------------------------

--------------
NDO PARAMETERS
--------------

Gamma integral treatment              ... MOPAC
Nuclear repulsuion treatment          ... AM1-style
Interaction factors:
s-s (sigma) =    1.0000
s-p (sigma) =    1.0000
s-d (sigma) =    1.0000
p-p (sigma) =    1.0000  p-p(pi) =    1.0000
p-d (sigma) =    1.0000  p-d(pi) =    1.0000
d-d (sigma) =    1.0000  d-d(pi) =    1.0000 d-d (delta) =    1.0000

--------------------------
Parameters for Element H :
--------------------------
 One-electron parameters (in eV)
  U(s)  =   -11.396427 Beta(s) =     6.173787 Neff(s) =     1.000000
 One-center electron repulsion parameters (in eV)
  G(s,s)=    12.848000
--------------------------
Parameters for Element C :
--------------------------
 One-electron parameters (in eV)
  U(s)  =   -52.028658 Beta(s) =    15.715783 Neff(s) =     2.000000
  U(p)  =   -39.614239 Beta(p) =     7.719283 Neff(p) =     2.000000 
 One-center electron repulsion parameters (in eV)
  G(s,s)=    12.230000
  G(s,p)=    11.470000 G(p,p)  =    10.253300
 Slater-Condon parameters (in eV)
 F2(p,p)=     5.1667 G1(s,p)=    7.2900

 Number of atoms                    ....    5
 Number of basis functions          ....    8

 Overlap integrals                  .... done
 One electron matrix                .... done
 Nuclear repulsion                  .... done
 Integral list                      .... done
 Electron-electron repulsion        .... done

Diagonalization of the overlap matrix:
Smallest eigenvalue                        ... 2.388e-01
Time for diagonalization                   ...    0.000 sec
Threshold for overlap eigenvalues          ... 1.000e-08
Number of eigenvalues below threshold      ... 0
Time for construction of square roots      ...    0.000 sec
Total time needed                          ...    0.000 sec


 InCore treatment chosen:
   Memory dedicated               ...    1024 MB
   Memory needed                  ...      0 MB
   Number of tiny    integrals    ...       0
   Number of small   integrals    ...       0
   Number of regular integrals    ...      66

--------------
SCF ITERATIONS
--------------
ITER       Energy         Delta-E        Max-DP      RMS-DP      [F,P]     Damp
                      *** Initiating the SOSCF procedure ***
                      *** Re-Reading the Fockian *** 
                      *** Removing any level shift *** 
ITER      Energy       Delta-E        Grad      Rot      Max-DP    RMS-DP
  0     -6.56097582  -6.5609758229  0.002856  0.002856  0.003109  0.001204
  1     -6.56103937  -0.0000635444  0.001659  0.003398  0.002823  0.001043
  2     -6.56106603  -0.0000266664  0.000956  0.004181  0.003738  0.001202
  3     -6.56107712  -0.0000110869  0.000199  0.000590  0.000871  0.000215
  4     -6.56107782  -0.0000007018  0.000101  0.000447  0.000764  0.000169
  5     -6.56107808  -0.0000002616  0.000039  0.000196  0.000272  0.000069
  6     -6.56107813  -0.0000000458  0.000030  0.000205  0.000320  0.000072
  7     -6.56107815  -0.0000000226  0.000010  0.000022  0.000046  0.000010
                 **** Energy Check signals convergence ****
              ***Rediagonalizing the Fockian in SOSCF/NRSCF***

               *****************************************************
               *                     SUCCESS                       *
               *           SCF CONVERGED AFTER   8 CYCLES          *
               *****************************************************

Total Energy       :           -6.56107815 Eh            -178.53601 eV
  Last Energy change         ...   -1.0515e-09  Tolerance :   1.0000e-08
  Last MAX-Density change    ...    8.6294e-06  Tolerance :   1.0000e-07
             **** THE GBW FILE WAS UPDATED (calc.gbw) ****
             **** DENSITY calc.scfp WAS UPDATED ****
             **** ENERGY FILE WAS UPDATED (calc.en.tmp) ****
             **** THE GBW FILE WAS UPDATED (calc.gbw) ****
             **** DENSITY calc.scfp WAS UPDATED ****
Total SCF time: 0 days 0 hours 0 min 0 sec 

Maximum memory used throughout the entire SCF-calculation: 222.8 MB

-------------------------   --------------------
FINAL SINGLE POINT ENERGY        -6.561078153401
-------------------------   --------------------

------------------------------------------------------------------------------
                          SCF GRADIENT FOR NDO METHODS
------------------------------------------------------------------------------

The cartesian gradient:
   1   C   :    0.001371117   -0.021573665   -0.009756212
   2   H   :   -0.019759332    0.040721372   -0.008821712
   3   H   :    0.016164466   -0.018732311    0.015552664
   4   H   :    0.001882713    0.000107708    0.001015746
   5   H   :    0.000341036   -0.000523104    0.002009515

Norm of the cartesian gradient     ...    0.059599173
RMS gradient                       ...    0.015388440
MAX gradient                       ...    0.040721372
------------------------------------------------------------------------------
                         ORCA GEOMETRY RELAXATION STEP
------------------------------------------------------------------------------

Reading the OPT-File                    .... done
Getting information on internals        .... done
Copying old internal coords+grads       .... done
Making the new internal coordinates     .... (new redundants).... done
Validating the new internal coordinates .... (new redundants).... done
Calculating the B-matrix                .... done
Calculating the G,G- and P matrices     .... done
Transforming gradient to internals      .... done
Projecting the internal gradient        .... done
Number of atoms                         ....   5
Number of internal coordinates          ....  11
Current Energy                          ....    -6.561078153 Eh
Current gradient norm                   ....     0.059599173 Eh/bohr
Maximum allowed component of the step   ....  0.300
Current trust radius                    ....  0.300
Updating the Hessian (BFGS)             .... done
Forming the augmented Hessian           .... done
Diagonalizing the augmented Hessian     .... done
Last element of RFO vector              ....  0.995717877
Lowest eigenvalues of augmented Hessian:
 -0.000623281  0.052135789  0.166906294  0.209856765  0.229033361
Length of the computed step             ....  0.092841650
The final length of the internal step   ....  0.092841650
Converting the step to cartesian space:
 Initial RMS(Int)=    0.0279928106
Transforming coordinates:
 Iter   0:  RMS(Cart)=    0.0245425027 RMS(Int)=    0.0278275227
 Iter   1:  RMS(Cart)=    0.0002700086 RMS(Int)=    0.0003446450
 Iter   2:  RMS(Cart)=    0.0000078498 RMS(Int)=    0.0000123585
 Iter   3:  RMS(Cart)=    0.0000002204 RMS(Int)=    0.0000003057
 Iter   4:  RMS(Cart)=    0.0000000070 RMS(Int)=    0.0000000109
Imposing constraints:
 Iter   0:  RMS(Cart)=    0.0002359965 RMS(Int)=    0.0003027411
 Iter   1:  RMS(Cart)=    0.0000533623 RMS(Int)=    0.0000683507
 Iter   2:  RMS(Cart)=    0.0000120478 RMS(Int)=    0.0000154264
 Iter   3:  RMS(Cart)=    0.0000027191 RMS(Int)=    0.0000034814
 Iter   4:  RMS(Cart)=    0.0000006136 RMS(Int)=    0.0000007857
 Iter   5:  RMS(Cart)=    0.0000001385 RMS(Int)=    0.0000001773
 Iter   6:  RMS(Cart)=    0.0000000313 RMS(Int)=    0.0000000400
CONVERGED
done
Storing new coordinates                 .... done

                                .--------------------.
          ----------------------|Geometry convergence|-------------------------
          Item                value                   Tolerance       Converged
          ---------------------------------------------------------------------
          Energy change      -0.0009737804            0.0000050000      NO
          RMS gradient        0.0025365682            0.0001000000      NO
          MAX gradient        0.0060938800            0.0003000000      NO
          RMS step            0.0279928106            0.0020000000      NO
          MAX step            0.0751371162            0.0040000000      NO
          ........................................................
          Max(Bonds)      0.0398      Max(Angles)    1.53
          Max(Dihed)        0.00      Max(Improp)    0.00
          ---------------------------------------------------------------------

The optimization has not yet converged - more geometry cycles are needed


    ---------------------------------------------------------------------------
                         Redundant Internal Coordinates
                            (Angstroem and degrees)

        Definition                    Value    dE/dq     Step     New-Value
    ----------------------------------------------------------------------------
     1. B(H   1,C   0)                1.1353 -0.012442  0.0163    1.1516   
     2. B(H   2,C   0)                1.7204  0.007429 -0.0398    1.6807   
     3. B(H   3,C   0)                1.0914  0.000305  0.0036    1.0950   
     4. B(H   4,C   0)                1.0911  0.000105  0.0040    1.0951   
     5. A(H   2,C   0,H   3)          103.47  0.000219    1.19    104.65   
     6. A(H   1,C   0,H   3)          113.78 -0.004729    0.76    114.53   
     7. A(H   2,C   0,H   4)          103.49  0.000221    1.19    104.68   
     8. A(H   3,C   0,H   4)          118.75 -0.000208    0.19    118.94   
     9. A(H   1,C   0,H   2)           25.14 -0.014460   -1.53     23.62   
    10. A(H   1,C   0,H   4)          113.81 -0.004687    0.74    114.55   
    11. A(C   0,H   1,H   2)          120.00  0.033600   -0.00    120.00 C 
    ----------------------------------------------------------------------------

         *************************************************************
         *                GEOMETRY OPTIMIZATION CYCLE   4            *
         *************************************************************
---------------------------------
CARTESIAN COORDINATES (ANGSTROEM)
---------------------------------
  C      4.104256    3.524967   -0.383903
  H      4.764929    3.177647    0.492417
  H      4.942611    3.672713    1.065636
  H      4.593066    4.230413   -1.063959
  H      3.054237    3.688260   -0.119190

----------------------------
CARTESIAN COORDINATES (A.U.)
----------------------------
  NO LB      ZA    FRAG     MASS         X           Y           Z
   0 C     4.0000    0    12.011    7.755921    6.661222   -0.725472
   1 H     1.0000    0     1.008    9.004411    6.004882    0.930534
   2 H     1.0000    0     1.008    9.340182    6.940422    2.013759
   3 H     1.0000    0     1.008    8.679637    7.994323   -2.010591
   4 H     1.0000    0     1.008    5.771672    6.969801   -0.225237

--------------------------------
INTERNAL COORDINATES (ANGSTROEM)
--------------------------------
 C      0   0   0     0.000000000000     0.00000000     0.00000000
 H      1   0   0     1.151111354776     0.00000000     0.00000000
 H      2   1   0     0.777972226341   119.99999757     0.00000000
 H      1   2   3     1.095018522656   114.26559139    70.78773093
 H      1   2   3     1.095115546869   114.28532904   289.20310816

---------------------------
INTERNAL COORDINATES (A.U.)
---------------------------
 C      0   0   0     0.000000000000     0.00000000     0.00000000
 H      1   0   0     2.175285210174     0.00000000     0.00000000
 H      2   1   0     1.470154447581   119.99999757     0.00000000
 H      1   2   3     2.069285119392   114.26559139    70.78773093
 H      1   2   3     2.069468468583   114.28532904   289.20310816

------------------------------------------------------------------------------
                           ORCA NDO INTEGRAL CALCULATION
------------------------------------------------------------------------------

--------------
NDO PARAMETERS
--------------

Gamma integral treatment              ... MOPAC
Nuclear repulsuion treatment          ... AM1-style
Interaction factors:
s-s (sigma) =    1.0000
s-p (sigma) =    1.0000
s-d (sigma) =    1.0000
p-p (sigma) =    1.0000  p-p(pi) =    1.0000
p-d (sigma) =    1.0000  p-d(pi) =    1.0000
d-d (sigma) =    1.0000  d-d(pi) =    1.0000 d-d (delta) =    1.0000

--------------------------
Parameters for Element H :
--------------------------
 One-electron parameters (in eV)
  U(s)  =   -11.396427 Beta(s) =     6.173787 Neff(s) =     1.000000
 One-center electron repulsion parameters (in eV)
  G(s,s)=    12.848000
--------------------------
Parameters for Element C :
--------------------------
 One-electron parameters (in eV)
  U(s)  =   -52.028658 Beta(s) =    15.715783 Neff(s) =     2.000000
  U(p)  =   -39.614239 Beta(p) =     7.719283 Neff(p) =     2.000000 
 One-center electron repulsion parameters (in eV)
  G(s,s)=    12.230000
  G(s,p)=    11.470000 G(p,p)  =    10.253300
 Slater-Condon parameters (in eV)
 F2(p,p)=     5.1667 G1(s,p)=    7.2900

 Number of atoms                    ....    5
 Number of basis functions          ....    8

 Overlap integrals                  .... done
 One electron matrix                .... done
 Nuclear repulsion                  .... done
 Integral list                      .... done
 Electron-electron repulsion        .... done

Diagonalization of the overlap matrix:
Smallest eigenvalue                        ... 2.261e-01
Time for diagonalization                   ...    0.000 sec
Threshold for overlap eigenvalues          ... 1.000e-08
Number of eigenvalues below threshold      ... 0
Time for construction of square roots      ...    0.000 sec
Total time needed                          ...    0.000 sec


 InCore treatment chosen:
   Memory dedicated               ...    1024 MB
   Memory needed                  ...      0 MB
   Number of tiny    integrals    ...       0
   Number of small   integrals    ...       0
   Number of regular integrals    ...      66

--------------
SCF ITERATIONS
--------------
ITER       Energy         Delta-E        Max-DP      RMS-DP      [F,P]     Damp
  0     -6.5596218965   0.000000000000 0.00315291  0.00081643  0.0098577 0.7000
                      *** Initiating the SOSCF procedure ***
                      *** Re-Reading the Fockian *** 
                      *** Removing any level shift *** 
ITER      Energy       Delta-E        Grad      Rot      Max-DP    RMS-DP
  1     -6.55970596  -0.0000840638  0.001785  0.001785  0.012501  0.003038
  2     -6.56002987  -0.0003239060  0.002255  0.004641  0.010299  0.002254
  3     -6.56014538  -0.0001155151  0.001477  0.007015  0.015541  0.003453
  4     -6.56021363  -0.0000682485  0.000331  0.000481  0.000625  0.000189
  5     -6.56021436  -0.0000007335  0.000104  0.000231  0.000354  0.000107
  6     -6.56021451  -0.0000001509  0.000036  0.000123  0.000202  0.000043
  7     -6.56021454  -0.0000000233  0.000023  0.000138  0.000225  0.000045
  8     -6.56021455  -0.0000000119  0.000008  0.000033  0.000050  0.000011
                 **** Energy Check signals convergence ****
              ***Rediagonalizing the Fockian in SOSCF/NRSCF***

               *****************************************************
               *                     SUCCESS                       *
               *           SCF CONVERGED AFTER   9 CYCLES          *
               *****************************************************

Total Energy       :           -6.56021455 Eh            -178.51251 eV
  Last Energy change         ...   -1.3882e-09  Tolerance :   1.0000e-08
  Last MAX-Density change    ...    3.3629e-05  Tolerance :   1.0000e-07
             **** THE GBW FILE WAS UPDATED (calc.gbw) ****
             **** DENSITY calc.scfp WAS UPDATED ****
             **** ENERGY FILE WAS UPDATED (calc.en.tmp) ****
             **** THE GBW FILE WAS UPDATED (calc.gbw) ****
             **** DENSITY calc.scfp WAS UPDATED ****
Total SCF time: 0 days 0 hours 0 min 0 sec 

Maximum memory used throughout the entire SCF-calculation: 222.8 MB

-------------------------   --------------------
FINAL SINGLE POINT ENERGY        -6.560214550905
-------------------------   --------------------

------------------------------------------------------------------------------
                          SCF GRADIENT FOR NDO METHODS
------------------------------------------------------------------------------

The cartesian gradient:
   1   C   :    0.006412187   -0.018357511   -0.000145795
   2   H   :   -0.014382367    0.050167205    0.005342831
   3   H   :    0.009723940   -0.032509766   -0.002834796
   4   H   :    0.002103892    0.001381898   -0.002989812
   5   H   :   -0.003857652   -0.000681826    0.000627572

Norm of the cartesian gradient     ...    0.065732591
RMS gradient                       ...    0.016972082
MAX gradient                       ...    0.050167205
------------------------------------------------------------------------------
                         ORCA GEOMETRY RELAXATION STEP
------------------------------------------------------------------------------

Reading the OPT-File                    .... done
Getting information on internals        .... done
Copying old internal coords+grads       .... done
Making the new internal coordinates     .... (new redundants).... done
Validating the new internal coordinates .... (new redundants).... done
Calculating the B-matrix                .... done
Calculating the G,G- and P matrices     .... done
Transforming gradient to internals      .... done
Projecting the internal gradient        .... done
Number of atoms                         ....   5
Number of internal coordinates          ....  11
Current Energy                          ....    -6.560214551 Eh
Current gradient norm                   ....     0.065732591 Eh/bohr
Maximum allowed component of the step   ....  0.300
Current trust radius                    ....  0.300
Updating the Hessian (BFGS)             .... done
Forming the augmented Hessian           .... done
Diagonalizing the augmented Hessian     .... done
Last element of RFO vector              ....  0.996817125
Lowest eigenvalues of augmented Hessian:
 -0.002124322  0.136377472  0.183032267  0.209859510  0.253358206
Length of the computed step             ....  0.079976699
The final length of the internal step   ....  0.079976699
Converting the step to cartesian space:
 Initial RMS(Int)=    0.0241138819
Transforming coordinates:
 Iter   0:  RMS(Cart)=    0.0202351307 RMS(Int)=    0.0241248928
 Iter   1:  RMS(Cart)=    0.0001312612 RMS(Int)=    0.0001894896
 Iter   2:  RMS(Cart)=    0.0000043832 RMS(Int)=    0.0000061804
 Iter   3:  RMS(Cart)=    0.0000001176 RMS(Int)=    0.0000001607
 Iter   4:  RMS(Cart)=    0.0000000029 RMS(Int)=    0.0000000040
Imposing constraints:
 Iter   0:  RMS(Cart)=    0.0000590745 RMS(Int)=    0.0000917327
 Iter   1:  RMS(Cart)=    0.0000157859 RMS(Int)=    0.0000245200
 Iter   2:  RMS(Cart)=    0.0000042196 RMS(Int)=    0.0000065546
 Iter   3:  RMS(Cart)=    0.0000011280 RMS(Int)=    0.0000017522
 Iter   4:  RMS(Cart)=    0.0000003015 RMS(Int)=    0.0000004684
 Iter   5:  RMS(Cart)=    0.0000000806 RMS(Int)=    0.0000001252
 Iter   6:  RMS(Cart)=    0.0000000215 RMS(Int)=    0.0000000335
CONVERGED
done
Storing new coordinates                 .... done

                                .--------------------.
          ----------------------|Geometry convergence|-------------------------
          Item                value                   Tolerance       Converged
          ---------------------------------------------------------------------
          Energy change       0.0008636025            0.0000050000      NO
          RMS gradient        0.0086922296            0.0001000000      NO
          MAX gradient        0.0226094427            0.0003000000      NO
          RMS step            0.0241138819            0.0020000000      NO
          MAX step            0.0748034054            0.0040000000      NO
          ........................................................
          Max(Bonds)      0.0396      Max(Angles)    1.11
          Max(Dihed)        0.00      Max(Improp)    0.00
          ---------------------------------------------------------------------

The optimization has not yet converged - more geometry cycles are needed


    ---------------------------------------------------------------------------
                         Redundant Internal Coordinates
                            (Angstroem and degrees)

        Definition                    Value    dE/dq     Step     New-Value
    ----------------------------------------------------------------------------
     1. B(H   1,C   0)                1.1511  0.005292 -0.0045    1.1466   
     2. B(H   2,C   0)                1.6810 -0.017308  0.0396    1.7206   
     3. B(H   3,C   0)                1.0950  0.003687 -0.0043    1.0907   
     4. B(H   4,C   0)                1.0951  0.003748 -0.0043    1.0908   
     5. A(H   2,C   0,H   3)          104.85  0.006175   -0.53    104.32   
     6. A(H   1,C   0,H   3)          114.27 -0.005436   -0.02    114.24   
     7. A(H   2,C   0,H   4)          104.87  0.006200   -0.53    104.34   
     8. A(H   3,C   0,H   4)          118.82  0.000412   -0.40    118.43   
     9. A(H   1,C   0,H   2)           23.63 -0.029823    1.11     24.74   
    10. A(H   1,C   0,H   4)          114.29 -0.005414   -0.02    114.26   
    11. A(C   0,H   1,H   2)          120.00  0.041788   -0.00    120.00 C 
    ----------------------------------------------------------------------------

         *************************************************************
         *                GEOMETRY OPTIMIZATION CYCLE   5            *
         *************************************************************
---------------------------------
CARTESIAN COORDINATES (ANGSTROEM)
---------------------------------
  C      4.100752    3.520991   -0.391916
  H      4.759688    3.164169    0.476105
  H      4.954165    3.687126    1.092751
  H      4.587190    4.230347   -1.062609
  H      3.057305    3.691367   -0.123330

----------------------------
CARTESIAN COORDINATES (A.U.)
----------------------------
  NO LB      ZA    FRAG     MASS         X           Y           Z
   0 C     4.0000    0    12.011    7.749299    6.653708   -0.740614
   1 H     1.0000    0     1.008    8.994506    5.979413    0.899708
   2 H     1.0000    0     1.008    9.362015    6.967658    2.065000
   3 H     1.0000    0     1.008    8.668533    7.994198   -2.008040
   4 H     1.0000    0     1.008    5.777470    6.975673   -0.233061

--------------------------------
INTERNAL COORDINATES (ANGSTROEM)
--------------------------------
 C      0   0   0     0.000000000000     0.00000000     0.00000000
 H      1   0   0     1.146724728704     0.00000000     0.00000000
 H      2   1   0     0.831598958351   120.00000178     0.00000000
 H      1   2   3     1.090705111626   114.30309866    70.52873783
 H      1   2   3     1.090847645560   114.32290723   289.46998665

---------------------------
INTERNAL COORDINATES (A.U.)
---------------------------
 C      0   0   0     0.000000000000     0.00000000     0.00000000
 H      1   0   0     2.166995688246     0.00000000     0.00000000
 H      2   1   0     1.571494284538   120.00000178     0.00000000
 H      1   2   3     2.061133953841   114.30309866    70.52873783
 H      1   2   3     2.061403303941   114.32290723   289.46998665

------------------------------------------------------------------------------
                           ORCA NDO INTEGRAL CALCULATION
------------------------------------------------------------------------------

--------------
NDO PARAMETERS
--------------

Gamma integral treatment              ... MOPAC
Nuclear repulsuion treatment          ... AM1-style
Interaction factors:
s-s (sigma) =    1.0000
s-p (sigma) =    1.0000
s-d (sigma) =    1.0000
p-p (sigma) =    1.0000  p-p(pi) =    1.0000
p-d (sigma) =    1.0000  p-d(pi) =    1.0000
d-d (sigma) =    1.0000  d-d(pi) =    1.0000 d-d (delta) =    1.0000

--------------------------
Parameters for Element H :
--------------------------
 One-electron parameters (in eV)
  U(s)  =   -11.396427 Beta(s) =     6.173787 Neff(s) =     1.000000
 One-center electron repulsion parameters (in eV)
  G(s,s)=    12.848000
--------------------------
Parameters for Element C :
--------------------------
 One-electron parameters (in eV)
  U(s)  =   -52.028658 Beta(s) =    15.715783 Neff(s) =     2.000000
  U(p)  =   -39.614239 Beta(p) =     7.719283 Neff(p) =     2.000000 
 One-center electron repulsion parameters (in eV)
  G(s,s)=    12.230000
  G(s,p)=    11.470000 G(p,p)  =    10.253300
 Slater-Condon parameters (in eV)
 F2(p,p)=     5.1667 G1(s,p)=    7.2900

 Number of atoms                    ....    5
 Number of basis functions          ....    8

 Overlap integrals                  .... done
 One electron matrix                .... done
 Nuclear repulsion                  .... done
 Integral list                      .... done
 Electron-electron repulsion        .... done

Diagonalization of the overlap matrix:
Smallest eigenvalue                        ... 2.394e-01
Time for diagonalization                   ...    0.000 sec
Threshold for overlap eigenvalues          ... 1.000e-08
Number of eigenvalues below threshold      ... 0
Time for construction of square roots      ...    0.000 sec
Total time needed                          ...    0.000 sec


 InCore treatment chosen:
   Memory dedicated               ...    1024 MB
   Memory needed                  ...      0 MB
   Number of tiny    integrals    ...       0
   Number of small   integrals    ...       0
   Number of regular integrals    ...      66

--------------
SCF ITERATIONS
--------------
ITER       Energy         Delta-E        Max-DP      RMS-DP      [F,P]     Damp
  0     -6.5609227957   0.000000000000 0.00222114  0.00057943  0.0071771 0.7000
                      *** Initiating the SOSCF procedure ***
                      *** Re-Reading the Fockian *** 
                      *** Removing any level shift *** 
ITER      Energy       Delta-E        Grad      Rot      Max-DP    RMS-DP
  1     -6.56096413  -0.0000413323  0.001279  0.001279  0.008913  0.002176
  2     -6.56112202  -0.0001578874  0.001474  0.003872  0.007610  0.001635
  3     -6.56117798  -0.0000559647  0.001070  0.005657  0.011746  0.002509
  4     -6.56121137  -0.0000333891  0.000255  0.000461  0.000475  0.000165
  5     -6.56121195  -0.0000005778  0.000082  0.000316  0.000542  0.000128
  6     -6.56121213  -0.0000001784  0.000039  0.000212  0.000339  0.000070
  7     -6.56121217  -0.0000000432  0.000032  0.000178  0.000275  0.000058
  8     -6.56121219  -0.0000000183  0.000010  0.000029  0.000044  0.000011
                 **** Energy Check signals convergence ****
[...]
The final length of the internal step   ....  0.000972274
Converting the step to cartesian space:
 Initial RMS(Int)=    0.0003074600
Transforming coordinates:
 Iter   0:  RMS(Cart)=    0.0003362389 RMS(Int)=    0.0003074591
 Iter   1:  RMS(Cart)=    0.0000000095 RMS(Int)=    0.0000000146
Imposing constraints:
 Iter   0:  RMS(Cart)=    0.0000000000 RMS(Int)=    0.0000000000
CONVERGED
done
Storing new coordinates                 .... done

                                .--------------------.
          ----------------------|Geometry convergence|-------------------------
          Item                value                   Tolerance       Converged
          ---------------------------------------------------------------------
          Energy change      -0.0000002843            0.0000050000      YES
          RMS gradient        0.0000363939            0.0001000000      YES
          MAX gradient        0.0000917874            0.0003000000      YES
          RMS step            0.0003074600            0.0020000000      YES
          MAX step            0.0009043411            0.0040000000      YES
          ........................................................
          Max(Bonds)      0.0005      Max(Angles)    0.01
          Max(Dihed)        0.01      Max(Improp)    0.00
          ---------------------------------------------------------------------

                    ***********************HURRAY********************
                    ***        THE OPTIMIZATION HAS CONVERGED     ***
                    *************************************************


    ---------------------------------------------------------------------------
                         Redundant Internal Coordinates

                          --- Optimized Parameters ---  
                            (Angstroem and degrees)

        Definition                    OldVal   dE/dq     Step     FinalVal
    ----------------------------------------------------------------------------
     1. B(H   1,C   0)                1.5165 -0.000034  0.0005    1.5170   
     2. B(H   2,H   1)                0.7123 -0.000092  0.0001    0.7124   
     3. B(H   3,C   0)                1.1027  0.000004 -0.0000    1.1027   
     4. B(H   4,C   0)                1.1027  0.000004 -0.0000    1.1027   
     5. A(H   3,C   0,H   4)          110.88 -0.000009    0.01    110.89   
     6. A(H   1,C   0,H   4)          103.76 -0.000038    0.01    103.77   
     7. A(H   1,C   0,H   3)          103.76 -0.000037    0.01    103.77   
     8. A(C   0,H   1,H   2)          130.00  0.005898    0.00    130.00 C 
     9. D(H   2,H   1,C   0,H   3)     58.00 -0.000019    0.01     58.00   
    10. D(H   2,H   1,C   0,H   4)    -57.97  0.000019   -0.01    -57.97   
    ----------------------------------------------------------------------------
                 *******************************************************
                 *** FINAL ENERGY EVALUATION AT THE STATIONARY POINT ***
                 ***               (AFTER    5 CYCLES)               ***
                 *******************************************************
---------------------------------
CARTESIAN COORDINATES (ANGSTROEM)
---------------------------------
  C      4.012693    3.437325   -0.583346
  H      4.857991    3.192096    0.652182
  H      5.029446    3.633195    1.184640
  H      4.520638    4.276837   -1.086418
  H      3.038332    3.754547   -0.176057

----------------------------
CARTESIAN COORDINATES (A.U.)
----------------------------
  NO LB      ZA    FRAG     MASS         X           Y           Z
   0 C     4.0000    0    12.011    7.582891    6.495604   -1.102365
   1 H     1.0000    0     1.008    9.180273    6.032188    1.232444
   2 H     1.0000    0     1.008    9.504276    6.865743    2.238644
   3 H     1.0000    0     1.008    8.542768    8.082051   -2.053032
   4 H     1.0000    0     1.008    5.741615    7.095065   -0.332700

--------------------------------
INTERNAL COORDINATES (ANGSTROEM)
--------------------------------
 C      0   0   0     0.000000000000     0.00000000     0.00000000
 H      1   0   0     1.516969098969     0.00000000     0.00000000
 H      2   1   0     0.712373533312   130.00000014     0.00000000
 H      1   2   3     1.102664358807   103.76717703    58.00221753
 H      1   2   3     1.102675231664   103.77176746   302.02574334

---------------------------
INTERNAL COORDINATES (A.U.)
---------------------------
 C      0   0   0     0.000000000000     0.00000000     0.00000000
 H      1   0   0     2.866656150672     0.00000000     0.00000000
 H      2   1   0     1.346190883014   130.00000014     0.00000000
 H      1   2   3     2.083733655781   103.76717703    58.00221753
 H      1   2   3     2.083754202503   103.77176746   302.02574334

----------------------------
SLATER BASIS SET DIM=   8
----------------------------
  0 C     2 shells
 l=0 nsto= 1
    2       1.808665000000        1.000000000000
 l=1 nsto= 1
    2       1.685116000000        1.000000000000
  1 H     1 shells
 l=0 nsto= 1
    1       1.188078000000        1.000000000000
  2 H     1 shells
 l=0 nsto= 1
    1       1.188078000000        1.000000000000
  3 H     1 shells
 l=0 nsto= 1
    1       1.188078000000        1.000000000000
  4 H     1 shells
 l=0 nsto= 1
    1       1.188078000000        1.000000000000
------------------------------------------------------------------------------
                           ORCA NDO INTEGRAL CALCULATION
------------------------------------------------------------------------------

--------------
NDO PARAMETERS
--------------

Gamma integral treatment              ... MOPAC
Nuclear repulsuion treatment          ... AM1-style
Interaction factors:
s-s (sigma) =    1.0000
s-p (sigma) =    1.0000
s-d (sigma) =    1.0000
p-p (sigma) =    1.0000  p-p(pi) =    1.0000
p-d (sigma) =    1.0000  p-d(pi) =    1.0000
d-d (sigma) =    1.0000  d-d(pi) =    1.0000 d-d (delta) =    1.0000

--------------------------
Parameters for Element H :
--------------------------
 One-electron parameters (in eV)
  U(s)  =   -11.396427 Beta(s) =     6.173787 Neff(s) =     1.000000
 One-center electron repulsion parameters (in eV)
  G(s,s)=    12.848000
--------------------------
Parameters for Element C :
--------------------------
 One-electron parameters (in eV)
  U(s)  =   -52.028658 Beta(s) =    15.715783 Neff(s) =     2.000000
  U(p)  =   -39.614239 Beta(p) =     7.719283 Neff(p) =     2.000000 
 One-center electron repulsion parameters (in eV)
  G(s,s)=    12.230000
  G(s,p)=    11.470000 G(p,p)  =    10.253300
 Slater-Condon parameters (in eV)
 F2(p,p)=     5.1667 G1(s,p)=    7.2900

 Number of atoms                    ....    5
 Number of basis functions          ....    8

 Overlap integrals                  .... done
 One electron matrix                .... done
 Nuclear repulsion                  .... done
 Integral list                      .... done
 Electron-electron repulsion        .... done
-------------------------------------------------------------------------------
                                 ORCA SCF
-------------------------------------------------------------------------------

------------
SCF SETTINGS
------------
Hamiltonian:
 ZDO-Hamiltonian        Method          .... NDDO


General Settings:
 Integral files         IntName         .... calc
 Hartree-Fock type      HFTyp           .... RHF
 Total Charge           Charge          ....    0
 Multiplicity           Mult            ....    1
 Number of Electrons    NEL             ....    8
 Basis Dimension        Dim             ....    8
 Nuclear Repulsion      ENuc            ....      6.6116624952 Eh

Convergence Acceleration:
 DIIS                   CNVDIIS         .... on
   Start iteration      DIISMaxIt       ....    12
   Startup error        DIISStart       ....  0.200000
   # of expansion vecs  DIISMaxEq       ....     5
   Bias factor          DIISBfac        ....   1.050
   Max. coefficient     DIISMaxC        ....  10.000
 Trust-Rad. Augm. Hess. CNVTRAH         .... off
 SOSCF                  CNVSOSCF        .... on
   Start iteration      SOSCFMaxIt      ....   150
   Startup grad/error   SOSCFStart      ....  0.003300
 Level Shifting         CNVShift        .... on
   Level shift para.    LevelShift      ....    0.2500
   Turn off err/grad.   ShiftErr        ....    0.0010
 Zerner damping         CNVZerner       .... off
 Static damping         CNVDamp         .... on
   Fraction old density DampFac         ....    0.7000
   Max. Damping (<1)    DampMax         ....    0.9800
   Min. Damping (>=0)   DampMin         ....    0.0000
   Turn off err/grad.   DampErr         ....    0.1000
 Fernandez-Rico         CNVRico         .... off

SCF Procedure:
 Maximum # iterations   MaxIter         ....   125
 SCF integral mode      SCFMode         .... Conventional
 Integral Buffer length BufferLength    .... 1048576
 Integral index format  IndFormat       ....     0
 Integral value format  ValFormat       ....     0
 Integral Storage       Thresh          ....  2.500e-11 Eh

Convergence Tolerance:
 Convergence Check Mode ConvCheckMode   .... Total+1el-Energy
 Convergence forced     ConvForced      .... 0
 Energy Change          TolE            ....  1.000e-08 Eh
 1-El. energy change                    ....  1.000e-05 Eh
 Orbital Gradient       TolG            ....  1.000e-05
 Orbital Rotation angle TolX            ....  1.000e-05
 DIIS Error             TolErr          ....  5.000e-07


Diagonalization of the overlap matrix:
Smallest eigenvalue                        ... 2.572e-01
Time for diagonalization                   ...    0.000 sec
Threshold for overlap eigenvalues          ... 1.000e-08
Number of eigenvalues below threshold      ... 0
Time for construction of square roots      ...    0.000 sec
Total time needed                          ...    0.000 sec

---------------------
INITIAL GUESS: MOREAD
---------------------
Guess MOs are being read from file: calc.gbw
Input Geometry matches current geometry (good)
Input basis set matches current basis set (good)
                      ------------------
                      INITIAL GUESS DONE (   0.0 sec)
                      ------------------

 InCore treatment chosen:
   Memory dedicated               ...    1024 MB
   Memory needed                  ...      0 MB
   Number of tiny    integrals    ...       0
   Number of small   integrals    ...       0
   Number of regular integrals    ...      66

--------------
SCF ITERATIONS
--------------
ITER       Energy         Delta-E        Max-DP      RMS-DP      [F,P]     Damp
                      *** Initiating the SOSCF procedure ***
                      *** Re-Reading the Fockian *** 
                      *** Removing any level shift *** 
ITER      Energy       Delta-E        Grad      Rot      Max-DP    RMS-DP
  0     -6.55775404  -6.5577540442  0.000048  0.000048  0.000079  0.000020
  1     -6.55775406  -0.0000000162  0.000028  0.000049  0.000070  0.000018
                 **** Energy Check signals convergence ****
              ***Rediagonalizing the Fockian in SOSCF/NRSCF***

               *****************************************************
               *                     SUCCESS                       *
               *           SCF CONVERGED AFTER   2 CYCLES          *
               *****************************************************


----------------
TOTAL SCF ENERGY
----------------

Total Energy       :           -6.55775407 Eh            -178.44556 eV

Components:
Nuclear Repulsion  :            6.61166250 Eh             179.91248 eV
Electronic Energy  :          -13.16941656 Eh            -358.35804 eV
One Electron Energy:          -21.63191650 Eh            -588.63437 eV
Two Electron Energy:            8.46249993 Eh             230.27633 eV


---------------
SCF CONVERGENCE
---------------

  Last Energy change         ...   -8.3040e-09  Tolerance :   1.0000e-08
  Last MAX-Density change    ...    7.0774e-05  Tolerance :   1.0000e-07
  Last RMS-Density change    ...    1.9472e-05  Tolerance :   5.0000e-09
  Last Orbital Gradient      ...    1.0460e-05  Tolerance :   1.0000e-05
  Last Orbital Rotation      ...    4.6773e-05  Tolerance :   1.0000e-05

             **** THE GBW FILE WAS UPDATED (calc.gbw) ****
             **** DENSITY calc.scfp WAS UPDATED ****
             **** ENERGY FILE WAS UPDATED (calc.en.tmp) ****
             **** THE GBW FILE WAS UPDATED (calc.gbw) ****
             **** DENSITY calc.scfp WAS UPDATED ****
----------------
ORBITAL ENERGIES
----------------

  NO   OCC          E(Eh)            E(eV) 
   0   2.0000      -0.970971       -26.4215 
   1   2.0000      -0.561184       -15.2706 
   2   2.0000      -0.495836       -13.4924 
   3   2.0000      -0.325463        -8.8563 
   4   0.0000       0.005941         0.1617 
   5   0.0000       0.156149         4.2490 
   6   0.0000       0.159908         4.3513 
   7   0.0000       0.168989         4.5984 

                    ********************************
                    * MULLIKEN POPULATION ANALYSIS *
                    ********************************

-----------------------
MULLIKEN ATOMIC CHARGES
-----------------------
   0 C :   -0.188195
   1 H :    0.094927
   2 H :    0.014919
   3 H :    0.039174
   4 H :    0.039176
Sum of atomic charges:   -0.0000000

--------------------------------
MULLIKEN REDUCED ORBITAL CHARGES
--------------------------------
  0 C s       :     1.775807  s :     1.775807
      pz      :     0.320970  p :     2.412389
      px      :     0.744484
      py      :     1.346935
  1 H s       :     0.905073  s :     0.905073
  2 H s       :     0.985081  s :     0.985081
  3 H s       :     0.960826  s :     0.960826
  4 H s       :     0.960824  s :     0.960824


                     *******************************
                     * LOEWDIN POPULATION ANALYSIS *
                     *******************************

----------------------
LOEWDIN ATOMIC CHARGES
----------------------
   0 C :   -0.133159
   1 H :    0.088068
   2 H :    0.022662
   3 H :    0.011214
   4 H :    0.011216

-------------------------------
LOEWDIN REDUCED ORBITAL CHARGES
-------------------------------
  0 C s       :     1.619263  s :     1.619263
      pz      :     0.346659  p :     2.513896
      px      :     0.793980
      py      :     1.373257
  1 H s       :     0.911932  s :     0.911932
  2 H s       :     0.977338  s :     0.977338
  3 H s       :     0.988786  s :     0.988786
  4 H s       :     0.988784  s :     0.988784


                      *****************************
                      * MAYER POPULATION ANALYSIS *
                      *****************************

  NA   - Mulliken gross atomic population
  ZA   - Total nuclear charge
  QA   - Mulliken gross atomic charge
  VA   - Mayer's total valence
  BVA  - Mayer's bonded valence
  FA   - Mayer's free valence

  ATOM       NA         ZA         QA         VA         BVA        FA
  0 C      5.6109     4.0000    -1.6109     1.6486     6.9408    -5.2922
  1 H      1.7031     1.0000    -0.7031     0.5056     3.5979    -3.0922
  2 H      1.6552     1.0000    -0.6552     0.5707     3.3064    -2.7357
  3 H      1.5992     1.0000    -0.5992     0.6409     2.7998    -2.1589
  4 H      1.5992     1.0000    -0.5992     0.6409     2.7998    -2.1588

  Mayer bond orders larger than 0.100000
B(  0-C ,  1-H ) :   0.8750 B(  0-C ,  2-H ) :   0.6013 B(  0-C ,  3-H ) :   2.7323 
B(  0-C ,  4-H ) :   2.7323 B(  1-H ,  2-H ) :   2.6738 

-------
TIMINGS
-------

Total SCF time: 0 days 0 hours 0 min 0 sec 

Total time                  ....       0.116 sec
Sum of individual times     ....       0.007 sec  (  6.1%)

Fock matrix formation       ....       0.002 sec  (  1.7%)
Diagonalization             ....       0.000 sec  (  0.0%)
Density matrix formation    ....       0.000 sec  (  0.0%)
Population analysis         ....       0.004 sec  (  3.9%)
Initial guess               ....       0.000 sec  (  0.4%)
Orbital Transformation      ....       0.000 sec  (  0.0%)
Orbital Orthonormalization  ....       0.000 sec  (  0.0%)
DIIS solution               ....       0.000 sec  (  0.0%)
SOSCF solution              ....       0.000 sec  (  0.1%)

Maximum memory used throughout the entire SCF-calculation: 222.8 MB

-------------------------   --------------------
FINAL SINGLE POINT ENERGY        -6.557754068627
-------------------------   --------------------

                                *** OPTIMIZATION RUN DONE ***

Storing optimized geometry in calc.010.xyz ... done
Storing optimized geometry and energy in calc.xyzall ... done
Storing actual gbw-file in calc.010.gbw ... done

                            ***************************************
                            *     ORCA property calculations      *
                            ***************************************

                                    ---------------------
                                    Active property flags
                                    ---------------------
   (+) Dipole Moment


------------------------------------------------------------------------------
                       ORCA ELECTRIC PROPERTIES CALCULATION
------------------------------------------------------------------------------

Dipole Moment Calculation                       ... on
Quadrupole Moment Calculation                   ... off
Polarizability Calculation                      ... off
GBWName                                         ... calc.gbw
Electron density                                ... calc.scfp
The origin for moment calculation is the CENTER OF MASS  = ( 7.748599,  6.627086 -0.757119)

-------------
DIPOLE MOMENT
-------------
                                X             Y             Z
Electronic contribution:     -2.45407      -1.82005      -5.03992
Nuclear contribution   :      1.31170       1.04077       2.73285
                        -----------------------------------------
Total Dipole Moment    :     -1.14237      -0.77928      -2.30707
                        -----------------------------------------
Magnitude (a.u.)       :      2.68977
Magnitude (Debye)      :      6.83685



--------------------
Rotational spectrum 
--------------------
 
Rotational constants in cm-1:     7.052668     2.552935     2.236309 
Rotational constants in MHz : 211433.659535 76535.068072 67042.868390 

 Dipole components along the rotational axes: 
x,y,z [a.u.] :    -2.492776    -0.000013     1.010406 
x,y,z [Debye]:    -6.336133    -0.000033     2.568247 

 
                   **** RELAXED SURFACE SCAN DONE ***

                    SUMMARY OF THE CALCULATED SURFACE

----------------------------
RELAXED SURFACE SCAN RESULTS
----------------------------

Column   1: NONAME

The Calculated Surface using the 'Actual Energy'
 120.00000000  -6.56122838
 121.11111111  -6.56043046
 122.22222222  -6.55972357
 123.33333333  -6.55911626
 124.44444444  -6.55862567
 125.55555556  -6.55831164
 126.66666667  -6.55814031
 127.77777778  -6.55799911
 128.88888889  -6.55787209
 130.00000000  -6.55775407

The Calculated Surface using the SCF energy
 120.00000000  -6.56122838
 121.11111111  -6.56043046
 122.22222222  -6.55972357
 123.33333333  -6.55911626
 124.44444444  -6.55862567
 125.55555556  -6.55831164
 126.66666667  -6.55814031
 127.77777778  -6.55799911
 128.88888889  -6.55787209
 130.00000000  -6.55775407


Timings for individual modules:

Sum of individual times         ...       11.304 sec (=   0.188 min)
STO integral calculation        ...        1.115 sec (=   0.019 min)   9.9 %
SCF iterations                  ...        8.625 sec (=   0.144 min)  76.3 %
SCF Gradient evaluation         ...        0.708 sec (=   0.012 min)   6.3 %
Geometry relaxation             ...        0.856 sec (=   0.014 min)   7.6 %
                             ****ORCA TERMINATED NORMALLY****
TOTAL RUN TIME: 0 days 0 hours 0 minutes 13 seconds 196 msec
