5
Coordinates from ORCA-job calc Relaxed Surface Scan Step 1
  C       4.101685      3.514925     -0.393927
  H       4.762423      3.162964      0.479963
  H       4.953559      3.687409      1.092079
  H       4.581868      4.232554     -1.061003
  H       3.059564      3.696147     -0.126112
>
5
Coordinates from ORCA-job calc Relaxed Surface Scan Step 2
  C       4.097469      3.506133     -0.405864
  H       4.766591      3.167322      0.489252
  H       4.956265      3.684057      1.094600
  H       4.579166      4.235967     -1.060119
  H       3.059609      3.700521     -0.126869
>
5
Coordinates from ORCA-job calc Relaxed Surface Scan Step 3
  C       4.092857      3.496400     -0.418947
  H       4.771865      3.171438      0.500201
  H       4.959496      3.680404      1.097747
  H       4.575109      4.239857     -1.059319
  H       3.059773      3.705901     -0.128682
>
5
Coordinates from ORCA-job calc Relaxed Surface Scan Step 4
  C       4.086604      3.485402     -0.435440
  H       4.779149      3.175413      0.514339
  H       4.963337      3.676298      1.101652
  H       4.570239      4.244564     -1.058602
  H       3.059770      3.712323     -0.130949
>
5
Coordinates from ORCA-job calc Relaxed Surface Scan Step 5
  C       4.076465      3.470962     -0.460230
  H       4.791677      3.178781      0.536667
  H       4.969126      3.671040      1.108057
  H       4.562531      4.251453     -1.058348
  H       3.059301      3.721764     -0.135146
>
5
Coordinates from ORCA-job calc Relaxed Surface Scan Step 6
  C       4.045332      3.446869     -0.524738
  H       4.829403      3.179070      0.598247
  H       4.988859      3.658772      1.133151
  H       4.542429      4.267042     -1.065165
  H       3.053077      3.742248     -0.150495
>
5
Coordinates from ORCA-job calc Relaxed Surface Scan Step 7
  C       4.030392      3.441188     -0.552318
  H       4.844676      3.181283      0.624357
  H       5.003536      3.650271      1.152194
  H       4.532947      4.272325     -1.072738
  H       3.047549      3.748932     -0.160495
>
5
Coordinates from ORCA-job calc Relaxed Surface Scan Step 8
  C       4.022597      3.439301     -0.566092
  H       4.851282      3.184579      0.636994
  H       5.013567      3.643974      1.164925
  H       4.527805      4.274514     -1.078094
  H       3.043848      3.751631     -0.166733
>
5
Coordinates from ORCA-job calc Relaxed Surface Scan Step 9
  C       4.017121      3.438061     -0.575714
  H       4.855301      3.188212      0.645590
  H       5.021947      3.638412      1.175404
  H       4.523812      4.275908     -1.082496
  H       3.040919      3.753407     -0.171784
>
5
Coordinates from ORCA-job calc Relaxed Surface Scan Step 10
  C       4.012693      3.437325     -0.583346
  H       4.857991      3.192096      0.652182
  H       5.029446      3.633195      1.184640
  H       4.520638      4.276837     -1.086418
  H       3.038332      3.754547     -0.176057
