
                                 *****************
                                 * O   R   C   A *
                                 *****************

                                            #,                                       
                                            ###                                      
                                            ####                                     
                                            #####                                    
                                            ######                                   
                                           ########,                                 
                                     ,,################,,,,,                         
                               ,,#################################,,                 
                          ,,##########################################,,             
                       ,#########################################, ''#####,          
                    ,#############################################,,   '####,        
                  ,##################################################,,,,####,       
                ,###########''''           ''''###############################       
              ,#####''   ,,,,##########,,,,          '''####'''          '####       
            ,##' ,,,,###########################,,,                        '##       
           ' ,,###''''                  '''############,,,                           
         ,,##''                                '''############,,,,        ,,,,,,###''
      ,#''                                            '''#######################'''  
     '                                                          ''''####''''         
             ,#######,   #######,   ,#######,      ##                                
            ,#'     '#,  ##    ##  ,#'     '#,    #''#        ######   ,####,        
            ##       ##  ##   ,#'  ##            #'  '#       #        #'  '#        
            ##       ##  #######   ##           ,######,      #####,   #    #        
            '#,     ,#'  ##    ##  '#,     ,#' ,#      #,         ##   #,  ,#        
             '#######'   ##     ##  '#######'  #'      '#     #####' # '####'        



                  #######################################################
                  #                        -***-                        #
                  #          Department of theory and spectroscopy      #
                  #    Directorship and core code : Frank Neese         #
                  #        Max Planck Institute fuer Kohlenforschung    #
                  #                Kaiser Wilhelm Platz 1               #
                  #                 D-45470 Muelheim/Ruhr               #
                  #                      Germany                        #
                  #                                                     #
                  #                  All rights reserved                #
                  #                        -***-                        #
                  #######################################################


                         Program Version 5.0.3 -  RELEASE  -


 With contributions from (in alphabetic order):
   Daniel Aravena         : Magnetic Suceptibility
   Michael Atanasov       : Ab Initio Ligand Field Theory (pilot matlab implementation)
   Alexander A. Auer      : GIAO ZORA, VPT2 properties, NMR spectrum
   Ute Becker             : Parallelization
   Giovanni Bistoni       : ED, misc. LED, open-shell LED, HFLD
   Martin Brehm           : Molecular dynamics
   Dmytro Bykov           : SCF Hessian
   Vijay G. Chilkuri      : MRCI spin determinant printing, contributions to CSF-ICE
   Dipayan Datta          : RHF DLPNO-CCSD density
   Achintya Kumar Dutta   : EOM-CC, STEOM-CC
   Dmitry Ganyushin       : Spin-Orbit,Spin-Spin,Magnetic field MRCI
   Miquel Garcia          : C-PCM and meta-GGA Hessian, CC/C-PCM, Gaussian charge scheme
   Yang Guo               : DLPNO-NEVPT2, F12-NEVPT2, CIM, IAO-localization
   Andreas Hansen         : Spin unrestricted coupled pair/coupled cluster methods
   Benjamin Helmich-Paris : MC-RPA, TRAH-SCF, COSX integrals
   Lee Huntington         : MR-EOM, pCC
   Robert Izsak           : Overlap fitted RIJCOSX, COSX-SCS-MP3, EOM
   Marcus Kettner         : VPT2
   Christian Kollmar      : KDIIS, OOCD, Brueckner-CCSD(T), CCSD density, CASPT2, CASPT2-K
   Simone Kossmann        : Meta GGA functionals, TD-DFT gradient, OOMP2, MP2 Hessian
   Martin Krupicka        : Initial AUTO-CI
   Lucas Lang             : DCDCAS
   Marvin Lechner         : AUTO-CI (C++ implementation), FIC-MRCC
   Dagmar Lenk            : GEPOL surface, SMD
   Dimitrios Liakos       : Extrapolation schemes; Compound Job, initial MDCI parallelization
   Dimitrios Manganas     : Further ROCIS development; embedding schemes
   Dimitrios Pantazis     : SARC Basis sets
   Anastasios Papadopoulos: AUTO-CI, single reference methods and gradients
   Taras Petrenko         : DFT Hessian,TD-DFT gradient, ASA, ECA, R-Raman, ABS, FL, XAS/XES, NRVS
   Peter Pinski           : DLPNO-MP2, DLPNO-MP2 Gradient
   Christoph Reimann      : Effective Core Potentials
   Marius Retegan         : Local ZFS, SOC
   Christoph Riplinger    : Optimizer, TS searches, QM/MM, DLPNO-CCSD(T), (RO)-DLPNO pert. Triples
   Tobias Risthaus        : Range-separated hybrids, TD-DFT gradient, RPA, STAB
   Michael Roemelt        : Original ROCIS implementation
   Masaaki Saitow         : Open-shell DLPNO-CCSD energy and density
   Barbara Sandhoefer     : DKH picture change effects
   Avijit Sen             : IP-ROCIS
   Kantharuban Sivalingam : CASSCF convergence, NEVPT2, FIC-MRCI
   Bernardo de Souza      : ESD, SOC TD-DFT
   Georgi Stoychev        : AutoAux, RI-MP2 NMR, DLPNO-MP2 response
   Willem Van den Heuvel  : Paramagnetic NMR
   Boris Wezisla          : Elementary symmetry handling
   Frank Wennmohs         : Technical directorship


 We gratefully acknowledge several colleagues who have allowed us to
 interface, adapt or use parts of their codes:
   Stefan Grimme, W. Hujo, H. Kruse, P. Pracht,  : VdW corrections, initial TS optimization,
                  C. Bannwarth, S. Ehlert          DFT functionals, gCP, sTDA/sTD-DF
   Ed Valeev, F. Pavosevic, A. Kumar             : LibInt (2-el integral package), F12 methods
   Garnet Chan, S. Sharma, J. Yang, R. Olivares  : DMRG
   Ulf Ekstrom                                   : XCFun DFT Library
   Mihaly Kallay                                 : mrcc  (arbitrary order and MRCC methods)
   Jiri Pittner, Ondrej Demel                    : Mk-CCSD
   Frank Weinhold                                : gennbo (NPA and NBO analysis)
   Christopher J. Cramer and Donald G. Truhlar   : smd solvation model
   Lars Goerigk                                  : TD-DFT with DH, B97 family of functionals
   V. Asgeirsson, H. Jonsson                     : NEB implementation
   FAccTs GmbH                                   : IRC, NEB, NEB-TS, DLPNO-Multilevel, CI-OPT
                                                   MM, QMMM, 2- and 3-layer-ONIOM, Crystal-QMMM,
                                                   LR-CPCM, SF, NACMEs, symmetry and pop. for TD-DFT,
                                                   nearIR, NL-DFT gradient (VV10), updates on ESD,
                                                   ML-optimized integration grids
   S Lehtola, MJT Oliveira, MAL Marques          : LibXC Library
   Liviu Ungur et al                             : ANISO software


 Your calculation uses the libint2 library for the computation of 2-el integrals
 For citations please refer to: http://libint.valeyev.net

 Your ORCA version has been built with support for libXC version: 5.1.0
 For citations please refer to: https://tddft.org/programs/libxc/

 This ORCA versions uses:
   CBLAS   interface :  Fast vector & matrix operations
   LAPACKE interface :  Fast linear algebra routines
   SCALAPACK package :  Parallel linear algebra routines
   Shared memory     :  Shared parallel matrices
   BLAS/LAPACK       :  OpenBLAS 0.3.15  USE64BITINT DYNAMIC_ARCH NO_AFFINITY Zen SINGLE_THREADED
        Core in use  :  Zen
   Copyright (c) 2011-2014, The OpenBLAS Project


Your calculation utilizes the semiempirical GFN2-xTB method
Please cite in your paper:
C. Bannwarth, Ehlert S., S. Grimme,  J. Chem. Theory Comput., 15, (2019), 1652.
   

================================================================================

cite the ECPs for I  [Def2-ECP] as follows:
Ce-Yb(ecp-28): M. Dolg, H. Stoll, H.Preuss, J. Chem. Phys., 1989, 90, 1730-1734.
Y-Cd(ecp-28), Hf-Hg(ecp-46): D. Andrae,U. Haeussermann, M. Dolg, H. Stoll, H. Preuss, Theor. Chim. Acta, 1990, 77, 123-141.
In-Sb(ecp-28), Tl-Bi(ecp-46): B. Metz, H. Stoll, M. Dolg, J. Chem. Phys., 2000, 113, 2563-2569.
Te-Xe(ecp-28), Po-Rn(ecp-46): K. A. Peterson, D. Figgen, E. Goll, H. Stoll, M. Dolg, J. Chem. Phys., 2003, 119, 11113-11123.
Rb(ecp-28), Cs(ecp-46): T. Leininger, A. Nicklass, W. Kuechle, H. Stoll, M. Dolg, A. Bergner, Chem. Phys. Lett., 1996, 255, 274-280.
Sr(ecp-28), Ba(ecp-46): M. Kaupp, P. V. Schleyer, H. Stoll and H. Preuss, J. Chem. Phys., 1991, 94, 1360-1366.
La(ecp-46): M. Dolg, H. Stoll, A. Savin, H. Preuss, Theor. Chim. Acta, 1989, 75, 173-194.
Lu(ecp-28): X. Cao, M. Dolg, J. Chem. Phys., 2001, 115, 7348-7355.

ECP parameters for I  [Def2-ECP] have been obtained from:
TURBOMOLE (7.0.2)

================================================================================
                                        WARNINGS
                       Please study these warnings very carefully!
================================================================================


WARNING: Geometry Optimization
  ===> : Switching off AutoStart
         For restart on a previous wavefunction, please use MOREAD

WARNING: Found dipole moment calculation with XTB calculation
  ===> : Switching off dipole moment calculation


WARNING: TRAH-SCF for XTB is not implemented!
  ===> : Turning TRAH off!

================================================================================
                                       INPUT FILE
================================================================================
NAME = calc.inp
|  1> !OPTTS xtb2
|  2> *xyz 0 1
|  3> I    1.10901726  -0.19335423   0.43405561
|  4> C    0.72782145   0.22620904   2.54427883
|  5> C    1.78165416   0.57084336   3.37528522
|  6> C   -0.55347656   0.12580066   3.06245690
|  7> C    1.55284367   0.83215698   4.71589954
|  8> H    2.77870673   0.63423319   2.96375386
|  9> C   -0.78396956   0.39081899   4.40108880
| 10> H   -1.37352562  -0.15486462   2.41581319
| 11> C    0.26923665   0.74600015   5.22813428
| 12> H    2.37601979   1.10486453   5.35948677
| 13> H   -1.78504431   0.31601035   4.79966111
| 14> H    0.08886994   0.95226375   6.27260923
| 15> C   -0.59306126   0.98913483   0.00861014
| 16> C   -1.57195748   0.49812106  -0.83169508
| 17> C   -0.69700795   2.23741286   0.59128724
| 18> C   -2.68431992   1.28016266  -1.09393056
| 19> H   -1.45995895  -0.47292459  -1.28796193
| 20> C   -1.81277778   3.01199462   0.32206765
| 21> H    0.08019116   2.59983331   1.24733057
| 22> C   -2.80531917   2.53412096  -0.51785052
| 23> H   -3.45635192   0.90621102  -1.74945509
| 24> H   -1.90159413   3.99192756   0.76654237
| 25> H   -3.67314773   3.14167986  -0.72637934
| 26> O    1.13663322  -0.13950208  -1.75954582
| 27> C    1.17857756  -1.16183062  -2.60301970
| 28> C    1.21633111  -2.49355782  -2.18497126
| 29> C    1.16240995  -0.89641187  -3.97777382
| 30> C    1.23938569  -3.52139734  -3.10672497
| 31> H    1.23351304  -2.70312559  -1.12288345
| 32> C    1.18428978  -1.93102239  -4.88982335
| 33> H    1.13185700   0.13299650  -4.30248576
| 34> C    1.22230239  -3.24891911  -4.46372085
| 35> H    1.27039515  -4.54519154  -2.76054504
| 36> H    1.17148952  -1.70600352  -5.94716446
| 37> H    1.23996698  -4.05469094  -5.18243030
| 38> *
| 39> %geom
| 40> Calc_Hess true
| 41> end
| 42> %pal
| 43> nprocs 1
| 44> endd                         ****END OF INPUT****
================================================================================

                       *****************************
                       * Geometry Optimization Run *
                       *****************************

Geometry optimization settings:
Update method            Update   .... Bofill
Choice of coordinates    CoordSys .... Z-matrix Internals
Initial Hessian          InHess   .... Almoef's Model

Convergence Tolerances:
Energy Change            TolE     ....  5.0000e-06 Eh
Max. Gradient            TolMAXG  ....  3.0000e-04 Eh/bohr
RMS Gradient             TolRMSG  ....  1.0000e-04 Eh/bohr
Max. Displacement        TolMAXD  ....  4.0000e-03 bohr
RMS Displacement         TolRMSD  ....  2.0000e-03 bohr
Strict Convergence                ....  False
------------------------------------------------------------------------------
                        ORCA OPTIMIZATION COORDINATE SETUP
------------------------------------------------------------------------------

The optimization will be done in new redundant internal coordinates
Making redundant internal coordinates   ...  (new redundants) done
Following TS mode number                ...     0
Evaluating the initial hessian          ...  (Is done on the fly) done
Evaluating the coordinates              ...  done
Calculating the B-matrix                .... done
Calculating the G-matrix                .... done
Diagonalizing the G-matrix              .... done
Small eigenvalue found = 3.160e-03
Small eigenvalue found = 4.251e-03
Small eigenvalue found = 9.601e-03
Small eigenvalue found = 1.207e-02
Small eigenvalue found = 2.418e-02
Small eigenvalue found = 2.703e-02
The first mode is                       ....   80
The number of degrees of freedom        ....   99

    -----------------------------------------------------------------
                    Redundant Internal Coordinates


    -----------------------------------------------------------------
         Definition                    Initial Value    d2E/dq (diagonal element)
    -----------------------------------------------------------------
      1. B(C   1,I   0)                  2.1850         0.000000   
      2. B(C   2,C   1)                  1.3856         0.000000   
      3. B(C   3,C   1)                  1.3858         0.000000   
      4. B(C   4,C   2)                  1.3849         0.000000   
      5. B(H   5,C   2)                  1.0805         0.000000   
      6. B(C   6,C   3)                  1.3839         0.000000   
      7. B(H   7,C   3)                  1.0814         0.000000   
      8. B(C   8,C   4)                  1.3847         0.000000   
      9. B(C   8,C   6)                  1.3854         0.000000   
     10. B(H   9,C   4)                  1.0799         0.000000   
     11. B(H  10,C   6)                  1.0801         0.000000   
     12. B(H  11,C   8)                  1.0798         0.000000   
     13. B(C  12,I   0)                  2.1157         0.000000   
     14. B(C  13,C  12)                  1.3804         0.000000   
     15. B(C  14,C  12)                  1.3815         0.000000   
     16. B(C  15,C  13)                  1.3848         0.000000   
     17. B(H  16,C  13)                  1.0787         0.000000   
     18. B(C  17,C  14)                  1.3847         0.000000   
     19. B(H  18,C  14)                  1.0797         0.000000   
     20. B(C  19,C  17)                  1.3853         0.000000   
     21. B(C  19,C  15)                  1.3853         0.000000   
     22. B(H  20,C  15)                  1.0796         0.000000   
     23. B(H  21,C  17)                  1.0797         0.000000   
     24. B(H  22,C  19)                  1.0797         0.000000   
     25. B(O  23,I   0)                  2.1944         0.000000   
     26. B(C  24,O  23)                  1.3260         0.000000   
     27. B(C  25,C  24)                  1.3963         0.000000   
     28. B(C  26,C  24)                  1.4002         0.000000   
     29. B(C  27,C  25)                  1.3808         0.000000   
     30. B(H  28,C  25)                  1.0827         0.000000   
     31. B(C  29,C  26)                  1.3794         0.000000   
     32. B(H  30,C  26)                  1.0798         0.000000   
     33. B(C  31,C  29)                  1.3856         0.000000   
     34. B(C  31,C  27)                  1.3842         0.000000   
     35. B(H  32,C  27)                  1.0812         0.000000   
     36. B(H  33,C  29)                  1.0811         0.000000   
     37. B(H  34,C  31)                  1.0799         0.000000   
     38. A(C   1,I   0,C  12)           86.9352         0.000000   
     39. A(C  12,I   0,O  23)           78.1939         0.000000   
     40. A(C   1,I   0,O  23)          164.3393         0.000000   
     41. A(I   0,C   1,C   2)          119.6224         0.000000   
     42. A(C   2,C   1,C   3)          119.8008         0.000000   
     43. A(I   0,C   1,C   3)          120.5655         0.000000   
     44. A(C   1,C   2,H   5)          119.2082         0.000000   
     45. A(C   4,C   2,H   5)          120.6696         0.000000   
     46. A(C   1,C   2,C   4)          120.1221         0.000000   
     47. A(C   1,C   3,H   7)          119.7602         0.000000   
     48. A(C   1,C   3,C   6)          120.1197         0.000000   
     49. A(C   6,C   3,H   7)          120.1192         0.000000   
     50. A(C   2,C   4,H   9)          119.9092         0.000000   
     51. A(C   8,C   4,H   9)          120.1230         0.000000   
     52. A(C   2,C   4,C   8)          119.9677         0.000000   
     53. A(C   3,C   6,H  10)          119.8700         0.000000   
     54. A(C   3,C   6,C   8)          119.9934         0.000000   
     55. A(C   8,C   6,H  10)          120.1361         0.000000   
     56. A(C   4,C   8,C   6)          119.9879         0.000000   
     57. A(C   6,C   8,H  11)          119.9612         0.000000   
     58. A(C   4,C   8,H  11)          120.0506         0.000000   
     59. A(C  13,C  12,C  14)          121.6552         0.000000   
     60. A(I   0,C  12,C  14)          118.7329         0.000000   
     61. A(I   0,C  12,C  13)          119.6107         0.000000   
     62. A(C  15,C  13,H  16)          120.7743         0.000000   
     63. A(C  12,C  13,H  16)          120.2687         0.000000   
     64. A(C  12,C  13,C  15)          118.9488         0.000000   
     65. A(C  12,C  14,H  18)          120.3586         0.000000   
     66. A(C  17,C  14,H  18)          120.6897         0.000000   
     67. A(C  12,C  14,C  17)          118.9517         0.000000   
     68. A(C  13,C  15,C  19)          120.1732         0.000000   
     69. A(C  19,C  15,H  20)          120.2376         0.000000   
     70. A(C  13,C  15,H  20)          119.5892         0.000000   
     71. A(C  14,C  17,C  19)          120.1494         0.000000   
     72. A(C  19,C  17,H  21)          120.2493         0.000000   
     73. A(C  14,C  17,H  21)          119.6006         0.000000   
     74. A(C  15,C  19,C  17)          120.1216         0.000000   
     75. A(C  17,C  19,H  22)          119.9264         0.000000   
     76. A(C  15,C  19,H  22)          119.9517         0.000000   
     77. A(I   0,O  23,C  24)          128.1210         0.000000   
     78. A(C  25,C  24,C  26)          118.3622         0.000000   
     79. A(O  23,C  24,C  26)          118.5554         0.000000   
     80. A(O  23,C  24,C  25)          123.0740         0.000000   
     81. A(C  27,C  25,H  28)          120.6966         0.000000   
     82. A(C  24,C  25,H  28)          118.6025         0.000000   
     83. A(C  24,C  25,C  27)          120.6997         0.000000   
     84. A(C  29,C  26,H  30)          121.1073         0.000000   
     85. A(C  24,C  26,H  30)          118.4414         0.000000   
     86. A(C  24,C  26,C  29)          120.4513         0.000000   
     87. A(C  31,C  27,H  32)          120.0432         0.000000   
     88. A(C  25,C  27,H  32)          119.4462         0.000000   
     89. A(C  25,C  27,C  31)          120.5106         0.000000   
     90. A(C  31,C  29,H  33)          119.9380         0.000000   
     91. A(C  26,C  29,H  33)          119.3646         0.000000   
     92. A(C  26,C  29,C  31)          120.6974         0.000000   
     93. A(C  29,C  31,H  34)          120.3642         0.000000   
     94. A(C  27,C  31,H  34)          120.3572         0.000000   
     95. A(C  27,C  31,C  29)          119.2785         0.000000   
     96. D(C   2,C   1,I   0,C  12)   -135.5685         0.000000   
     97. D(C   2,C   1,I   0,O  23)   -117.3768         0.000000   
     98. D(C   3,C   1,I   0,C  12)     45.6575         0.000000   
     99. D(C   3,C   1,I   0,O  23)     63.8492         0.000000   
    100. D(C   4,C   2,C   1,I   0)   -179.6665         0.000000   
    101. D(H   5,C   2,C   1,C   3)    179.2357         0.000000   
    102. D(C   4,C   2,C   1,C   3)     -0.8829         0.000000   
    103. D(H   5,C   2,C   1,I   0)      0.4522         0.000000   
    104. D(H   7,C   3,C   1,C   2)   -179.2632         0.000000   
    105. D(H   7,C   3,C   1,I   0)     -0.4913         0.000000   
    106. D(C   6,C   3,C   1,C   2)      1.0868         0.000000   
    107. D(C   6,C   3,C   1,I   0)    179.8586         0.000000   
    108. D(H   9,C   4,C   2,C   1)   -179.7205         0.000000   
    109. D(C   8,C   4,C   2,H   5)   -179.9696         0.000000   
    110. D(C   8,C   4,C   2,C   1)      0.1508         0.000000   
    111. D(H   9,C   4,C   2,H   5)      0.1590         0.000000   
    112. D(H  10,C   6,C   3,H   7)      0.0530         0.000000   
    113. D(H  10,C   6,C   3,C   1)    179.7018         0.000000   
    114. D(C   8,C   6,C   3,H   7)    179.7929         0.000000   
    115. D(C   8,C   6,C   3,C   1)     -0.5582         0.000000   
    116. D(H  11,C   8,C   6,H  10)     -0.2351         0.000000   
    117. D(C   4,C   8,C   6,H  10)    179.5622         0.000000   
    118. D(C   4,C   8,C   6,C   3)     -0.1770         0.000000   
    119. D(H  11,C   8,C   4,H   9)      0.0486         0.000000   
    120. D(H  11,C   8,C   4,C   2)   -179.8225         0.000000   
    121. D(H  11,C   8,C   6,C   3)   -179.9743         0.000000   
    122. D(C   6,C   8,C   4,H   9)   -179.7485         0.000000   
    123. D(C   6,C   8,C   4,C   2)      0.3804         0.000000   
    124. D(C  14,C  12,I   0,C   1)     49.5352         0.000000   
    125. D(C  13,C  12,I   0,O  23)     54.8642         0.000000   
    126. D(C  13,C  12,I   0,C   1)   -130.0748         0.000000   
    127. D(C  14,C  12,I   0,O  23)   -125.5258         0.000000   
    128. D(H  16,C  13,C  12,C  14)    178.9555         0.000000   
    129. D(H  16,C  13,C  12,I   0)     -1.4463         0.000000   
    130. D(C  15,C  13,C  12,C  14)     -0.0104         0.000000   
    131. D(C  15,C  13,C  12,I   0)    179.5879         0.000000   
    132. D(H  18,C  14,C  12,C  13)    179.8530         0.000000   
    133. D(H  18,C  14,C  12,I   0)      0.2513         0.000000   
    134. D(C  17,C  14,C  12,C  13)     -0.0300         0.000000   
    135. D(C  17,C  14,C  12,I   0)   -179.6316         0.000000   
    136. D(H  20,C  15,C  13,H  16)      1.0553         0.000000   
    137. D(H  20,C  15,C  13,C  12)   -179.9842         0.000000   
    138. D(C  19,C  15,C  13,H  16)   -178.9759         0.000000   
    139. D(C  19,C  15,C  13,C  12)     -0.0155         0.000000   
    140. D(H  21,C  17,C  14,H  18)      0.5296         0.000000   
    141. D(H  21,C  17,C  14,C  12)   -179.5879         0.000000   
    142. D(C  19,C  17,C  14,H  18)   -179.7863         0.000000   
    143. D(C  19,C  17,C  14,C  12)      0.0963         0.000000   
    144. D(H  22,C  19,C  17,H  21)     -0.2334         0.000000   
    145. D(C  15,C  19,C  17,H  21)    179.5592         0.000000   
    146. D(C  15,C  19,C  17,C  14)     -0.1229         0.000000   
    147. D(H  22,C  19,C  15,H  20)     -0.1570         0.000000   
    148. D(H  22,C  19,C  15,C  13)    179.8744         0.000000   
    149. D(H  22,C  19,C  17,C  14)   -179.9155         0.000000   
    150. D(C  17,C  19,C  15,H  20)   -179.9495         0.000000   
    151. D(C  17,C  19,C  15,C  13)      0.0819         0.000000   
    152. D(C  24,O  23,I   0,C  12)   -126.1938         0.000000   
    153. D(C  24,O  23,I   0,C   1)   -144.7653         0.000000   
    154. D(C  26,C  24,O  23,I   0)    178.7653         0.000000   
    155. D(C  25,C  24,O  23,I   0)     -0.1629         0.000000   
    156. D(H  28,C  25,C  24,O  23)     -1.3454         0.000000   
    157. D(C  27,C  25,C  24,C  26)      0.1083         0.000000   
    158. D(C  27,C  25,C  24,O  23)    179.0384         0.000000   
    159. D(H  28,C  25,C  24,C  26)    179.7245         0.000000   
    160. D(H  30,C  26,C  24,C  25)    179.9180         0.000000   
    161. D(H  30,C  26,C  24,O  23)      0.9387         0.000000   
    162. D(C  29,C  26,C  24,C  25)     -0.0398         0.000000   
    163. D(C  29,C  26,C  24,O  23)   -179.0192         0.000000   
    164. D(H  32,C  27,C  25,H  28)      0.2785         0.000000   
    165. D(H  32,C  27,C  25,C  24)    179.8866         0.000000   
    166. D(C  31,C  27,C  25,H  28)   -179.7591         0.000000   
    167. D(C  31,C  27,C  25,C  24)     -0.1509         0.000000   
    168. D(H  33,C  29,C  26,H  30)      0.0553         0.000000   
    169. D(H  33,C  29,C  26,C  24)   -179.9880         0.000000   
    170. D(C  31,C  29,C  26,H  30)   -179.9434         0.000000   
    171. D(C  31,C  29,C  26,C  24)      0.0133         0.000000   
    172. D(H  34,C  31,C  29,H  33)      0.0430         0.000000   
    173. D(H  34,C  31,C  29,C  26)   -179.9583         0.000000   
    174. D(C  27,C  31,C  29,H  33)    179.9482         0.000000   
    175. D(C  27,C  31,C  29,C  26)     -0.0531         0.000000   
    176. D(H  34,C  31,C  27,H  32)     -0.0110         0.000000   
    177. D(H  34,C  31,C  27,C  25)   -179.9732         0.000000   
    178. D(C  29,C  31,C  27,H  32)   -179.9162         0.000000   
    179. D(C  29,C  31,C  27,C  25)      0.1215         0.000000   
    -----------------------------------------------------------------

Number of atoms                         .... 35
Number of degrees of freedom            .... 179

         *************************************************************
         *                GEOMETRY OPTIMIZATION CYCLE   1            *
         *************************************************************
---------------------------------
CARTESIAN COORDINATES (ANGSTROEM)
---------------------------------
  I     1.109017   -0.193354    0.434056
  C     0.727821    0.226209    2.544279
  C     1.781654    0.570843    3.375285
  C    -0.553477    0.125801    3.062457
  C     1.552844    0.832157    4.715900
  H     2.778707    0.634233    2.963754
  C    -0.783970    0.390819    4.401089
  H    -1.373526   -0.154865    2.415813
  C     0.269237    0.746000    5.228134
  H     2.376020    1.104865    5.359487
  H    -1.785044    0.316010    4.799661
  H     0.088870    0.952264    6.272609
  C    -0.593061    0.989135    0.008610
  C    -1.571957    0.498121   -0.831695
  C    -0.697008    2.237413    0.591287
  C    -2.684320    1.280163   -1.093931
  H    -1.459959   -0.472925   -1.287962
  C    -1.812778    3.011995    0.322068
  H     0.080191    2.599833    1.247331
  C    -2.805319    2.534121   -0.517851
  H    -3.456352    0.906211   -1.749455
  H    -1.901594    3.991928    0.766542
  H    -3.673148    3.141680   -0.726379
  O     1.136633   -0.139502   -1.759546
  C     1.178578   -1.161831   -2.603020
  C     1.216331   -2.493558   -2.184971
  C     1.162410   -0.896412   -3.977774
  C     1.239386   -3.521397   -3.106725
  H     1.233513   -2.703126   -1.122883
  C     1.184290   -1.931022   -4.889823
  H     1.131857    0.132996   -4.302486
  C     1.222302   -3.248919   -4.463721
  H     1.270395   -4.545192   -2.760545
  H     1.171490   -1.706004   -5.947164
  H     1.239967   -4.054691   -5.182430

----------------------------
CARTESIAN COORDINATES (A.U.)
----------------------------
  NO LB    ZA    FRAG    MASS        X           Y           Z
   0 I  53.0000    0   126.900    2.095739   -0.365387    0.820246
   1 C   6.0000    0    12.011    1.375383    0.427473    4.807990
   2 C   6.0000    0    12.011    3.366838    1.078738    6.378365
   3 C   6.0000    0    12.011   -1.045919    0.237729    5.787205
   4 C   6.0000    0    12.011    2.934449    1.572549    8.911759
   5 H   1.0000    0     1.008    5.250995    1.198527    5.600683
   6 C   6.0000    0    12.011   -1.481488    0.738541    8.316853
   7 H   1.0000    0     1.008   -2.595587   -0.292652    4.565225
   8 C   6.0000    0    12.011    0.508784    1.409736    9.879742
   9 H   1.0000    0     1.008    4.490027    2.087891   10.127962
  10 H   1.0000    0     1.008   -3.373245    0.597173    9.070045
  11 H   1.0000    0     1.008    0.167940    1.799518   11.853514
  12 C   6.0000    0    12.011   -1.120723    1.869194    0.016271
  13 C   6.0000    0    12.011   -2.970569    0.941312   -1.571676
  14 C   6.0000    0    12.011   -1.317154    4.228098    1.117371
  15 C   6.0000    0    12.011   -5.072630    2.419157   -2.067229
  16 H   1.0000    0     1.008   -2.758923   -0.893698   -2.433895
  17 C   6.0000    0    12.011   -3.425654    5.691845    0.608620
  18 H   1.0000    0     1.008    0.151539    4.912973    2.357113
  19 C   6.0000    0    12.011   -5.301285    4.788795   -0.978596
  20 H   1.0000    0     1.008   -6.531559    1.712491   -3.305991
  21 H   1.0000    0     1.008   -3.593492    7.543650    1.448555
  22 H   1.0000    0     1.008   -6.941243    5.936915   -1.372658
  23 O   8.0000    0    15.999    2.147926   -0.263621   -3.325060
  24 C   6.0000    0    12.011    2.227189   -2.195542   -4.918994
  25 C   6.0000    0    12.011    2.298533   -4.712141   -4.128997
  26 C   6.0000    0    12.011    2.196636   -1.693973   -7.516903
  27 C   6.0000    0    12.011    2.342100   -6.654477   -5.870859
  28 H   1.0000    0     1.008    2.331002   -5.108167   -2.121942
  29 C   6.0000    0    12.011    2.237983   -3.649103   -9.240427
  30 H   1.0000    0     1.008    2.138900    0.251327   -8.130520
  31 C   6.0000    0    12.011    2.309817   -6.139567   -8.435210
  32 H   1.0000    0     1.008    2.400699   -8.589167   -5.216674
  33 H   1.0000    0     1.008    2.213794   -3.223879  -11.238512
  34 H   1.0000    0     1.008    2.343198   -7.662255   -9.793374

      -----------------------------------------------------------      
     |                   =====================                   |     
     |                           x T B                           |     
     |                   =====================                   |     
     |                         S. Grimme                         |     
     |          Mulliken Center for Theoretical Chemistry        |     
     |                    University of Bonn                     |     
      -----------------------------------------------------------      

   * xtb version 6.4.1 (afa7bdf) compiled by 'ehlert@majestix' on 2021-06-10

   xtb is free software: you can redistribute it and/or modify it under
   the terms of the GNU Lesser General Public License as published by
   the Free Software Foundation, either version 3 of the License, or
   (at your option) any later version.
   
   xtb is distributed in the hope that it will be useful,
   but WITHOUT ANY WARRANTY; without even the implied warranty of
   MERCHANTABILITY or FITNESS FOR A PARTICULAR PURPOSE.  See the
   GNU Lesser General Public License for more details.
   
   Cite this work as:
   * C. Bannwarth, E. Caldeweyher, S. Ehlert, A. Hansen, P. Pracht,
     J. Seibert, S. Spicher, S. Grimme, WIREs Comput. Mol. Sci., 2020, 11,
     e01493. DOI: 10.1002/wcms.1493
   
   for GFN2-xTB:
   * C. Bannwarth, S. Ehlert and S. Grimme., J. Chem. Theory Comput., 2019,
     15, 1652-1671. DOI: 10.1021/acs.jctc.8b01176
   for GFN1-xTB:
   * S. Grimme, C. Bannwarth, P. Shushkov, J. Chem. Theory Comput., 2017,
     13, 1989-2009. DOI: 10.1021/acs.jctc.7b00118
   for GFN0-xTB:
   * P. Pracht, E. Caldeweyher, S. Ehlert, S. Grimme, ChemRxiv, 2019, preprint.
     DOI: 10.26434/chemrxiv.8326202.v1
   for GFN-FF:
   * S. Spicher and S. Grimme, Angew. Chem. Int. Ed., 2020, 59, 15665-15673.
     DOI: 10.1002/anie.202004239
   
   for DFT-D4:
   * E. Caldeweyher, C. Bannwarth and S. Grimme, J. Chem. Phys., 2017,
     147, 034112. DOI: 10.1063/1.4993215
   * E. Caldeweyher, S. Ehlert, A. Hansen, H. Neugebauer, S. Spicher,
     C. Bannwarth and S. Grimme, J. Chem. Phys., 2019, 150, 154122.
     DOI: 10.1063/1.5090222
   * E. Caldeweyher, J.-M. Mewes, S. Ehlert and S. Grimme, Phys. Chem. Chem. Phys.
     2020, 22, 8499-8512. DOI: 10.1039/D0CP00502A
   
   for sTDA-xTB:
   * S. Grimme and C. Bannwarth, J. Chem. Phys., 2016, 145, 054103.
     DOI: 10.1063/1.4959605
   
   in the mass-spec context:
   * V. Asgeirsson, C. Bauer and S. Grimme, Chem. Sci., 2017, 8, 4879.
     DOI: 10.1039/c7sc00601b
   * J. Koopman and S. Grimme, ACS Omega 2019, 4, 12, 15120-15133.
     DOI: 10.1021/acsomega.9b02011
   
   for metadynamics refer to:
   * S. Grimme, J. Chem. Theory Comput., 2019, 155, 2847-2862
     DOI: 10.1021/acs.jctc.9b00143
   
   for SPH calculations refer to:
   * S. Spicher and S. Grimme, J. Chem. Theory Comput., 2021, 17, 1701-1714
     DOI: 10.1021/acs.jctc.0c01306
   
   with help from (in alphabetical order)
   P. Atkinson, C. Bannwarth, F. Bohle, G. Brandenburg, E. Caldeweyher
   M. Checinski, S. Dohm, S. Ehlert, S. Ehrlich, I. Gerasimov, J. Koopman
   C. Lavigne, S. Lehtola, F. März, M. Müller, F. Musil, H. Neugebauer
   J. Pisarek, C. Plett, P. Pracht, J. Seibert, P. Shushkov, S. Spicher
   M. Stahn, M. Steiner, T. Strunk, J. Stückrath, T. Rose, and J. Unsleber
   
 * started run on 2022/08/08 at 14:27:14.739     

           -------------------------------------------------
          |                Calculation Setup                |
           -------------------------------------------------

          program call               : xtb calc_XTB.xyz --grad -c 0 -u 0 -P 1 --namespace calc --input calc_XTB.input.tmp --acc 1.000000
          hostname                   : web
          calculation namespace      : calc
          coordinate file            : calc_XTB.xyz
          omp threads                :                     1
          number of atoms            :                    35
          number of electrons        :                   100
          charge                     :                     0
          spin                       :                   0.0
          first test random number   :      0.78921937713569

   ID    Z sym.   atoms
    1   53 I      1
    2    6 C      2-5, 7, 9, 13-16, 18, 20, 25-28, 30, 32
    3    1 H      6, 8, 10-12, 17, 19, 21-23, 29, 31, 33-35
    4    8 O      24

           -------------------------------------------------
          |                 G F N 2 - x T B                 |
           -------------------------------------------------

        Reference                      10.1021/acs.jctc.8b01176
      * Hamiltonian:
        H0-scaling (s, p, d)           1.850000    2.230000    2.230000
        zeta-weighting                 0.500000
      * Dispersion:
        s8                             2.700000
        a1                             0.520000
        a2                             5.000000
        s9                             5.000000
      * Repulsion:
        kExp                           1.500000    1.000000
        rExp                           1.000000
      * Coulomb:
        alpha                          2.000000
        third order                    shell-resolved
        anisotropic                    true
        a3                             3.000000
        a5                             4.000000
        cn-shift                       1.200000
        cn-exp                         4.000000
        max-rad                        5.000000


          ...................................................
          :                      SETUP                      :
          :.................................................:
          :  # basis functions                 101          :
          :  # atomic orbitals                 100          :
          :  # shells                           56          :
          :  # electrons                       100          :
          :  max. iterations                   250          :
          :  Hamiltonian                  GFN2-xTB          :
          :  restarted?                      false          :
          :  GBSA solvation                  false          :
          :  PC potential                    false          :
          :  electronic temp.          300.0000000     K    :
          :  accuracy                    1.0000000          :
          :  -> integral cutoff          0.2500000E+02      :
          :  -> integral neglect         0.1000000E-07      :
          :  -> SCF convergence          0.1000000E-05 Eh   :
          :  -> wf. convergence          0.1000000E-03 e    :
          :  Broyden damping             0.4000000          :
          ...................................................

 iter      E             dE          RMSdq      gap      omega  full diag
   1    -54.7318404 -0.547318E+02  0.488E+00    3.21       0.0  T
   2    -54.8460471 -0.114207E+00  0.343E+00    2.52       1.0  T
   3    -54.8628998 -0.168527E-01  0.173E+00    2.79       1.0  T
   4    -54.8698831 -0.698335E-02  0.647E-01    2.47       1.0  T
   5    -54.8714756 -0.159242E-02  0.377E-01    2.59       1.0  T
   6    -54.8743660 -0.289047E-02  0.167E-01    2.54       1.0  T
   7    -54.8743662 -0.146905E-06  0.113E-01    2.54       1.0  T
   8    -54.8744483 -0.820910E-04  0.640E-02    2.55       1.0  T
   9    -54.8744605 -0.122199E-04  0.273E-02    2.55       1.0  T
  10    -54.8744688 -0.825968E-05  0.932E-03    2.55       1.8  T
  11    -54.8744694 -0.670618E-06  0.478E-03    2.55       3.5  T
  12    -54.8744695 -0.933190E-07  0.270E-03    2.55       6.3  T
  13    -54.8744696 -0.689773E-07  0.146E-03    2.55      11.6  T
  14    -54.8744696 -0.565811E-08  0.795E-04    2.55      21.3  T
  15    -54.8744696 -0.338189E-08  0.480E-04    2.55      35.2  T

   *** convergence criteria satisfied after 15 iterations ***

         #    Occupation            Energy/Eh            Energy/eV
      -------------------------------------------------------------
         1        2.0000           -0.7432455             -20.2247
       ...           ...                  ...                  ...
        44        2.0000           -0.4200475             -11.4301
        45        2.0000           -0.4141664             -11.2700
        46        2.0000           -0.4100876             -11.1591
        47        2.0000           -0.4049584             -11.0195
        48        2.0000           -0.3797909             -10.3346
        49        2.0000           -0.3711456             -10.0994
        50        2.0000           -0.3474579              -9.4548 (HOMO)
        51                         -0.2536466              -6.9021 (LUMO)
        52                         -0.2494929              -6.7890
        53                         -0.2476899              -6.7400
        54                         -0.2385256              -6.4906
        55                         -0.2226352              -6.0582
       ...                                ...                  ...
       100                          0.7643147              20.7981
      -------------------------------------------------------------
                  HL-Gap            0.0938113 Eh            2.5527 eV
             Fermi-level           -0.3005522 Eh           -8.1784 eV

 SCC (total)                   0 d,  0 h,  0 min,  0.066 sec
 SCC setup                      ...        0 min,  0.000 sec (  0.438%)
 Dispersion                     ...        0 min,  0.000 sec (  0.745%)
 classical contributions        ...        0 min,  0.000 sec (  0.129%)
 integral evaluation            ...        0 min,  0.010 sec ( 14.587%)
 iterations                     ...        0 min,  0.045 sec ( 68.826%)
 molecular gradient             ...        0 min,  0.010 sec ( 14.941%)
 printout                       ...        0 min,  0.000 sec (  0.310%)

         :::::::::::::::::::::::::::::::::::::::::::::::::::::
         ::                     SUMMARY                     ::
         :::::::::::::::::::::::::::::::::::::::::::::::::::::
         :: total energy             -53.952450587309 Eh    ::
         :: gradient norm              0.000336514505 Eh/a0 ::
         :: HOMO-LUMO gap              2.552735824264 eV    ::
         ::.................................................::
         :: SCC energy               -54.874469594124 Eh    ::
         :: -> isotropic ES            0.034084311702 Eh    ::
         :: -> anisotropic ES          0.002545347672 Eh    ::
         :: -> anisotropic XC          0.028377892565 Eh    ::
         :: -> dispersion             -0.040844969885 Eh    ::
         :: repulsion energy           0.921898309581 Eh    ::
         :: add. restraining           0.000000000000 Eh    ::
         :: total charge              -0.000000000000 e     ::
         :::::::::::::::::::::::::::::::::::::::::::::::::::::


Property printout bound to 'properties.out'

           -------------------------------------------------
          | TOTAL ENERGY              -53.952450587309 Eh   |
          | GRADIENT NORM               0.000336514505 Eh/α |
          | HOMO-LUMO GAP               2.552735824264 eV   |
           -------------------------------------------------

------------------------------------------------------------------------
 * finished run on 2022/08/08 at 14:27:14.834     
------------------------------------------------------------------------
 total:
 * wall-time:     0 d,  0 h,  0 min,  0.095 sec
 *  cpu-time:     0 d,  0 h,  0 min,  0.078 sec
 * ratio c/w:     0.819 speedup
 SCF:
 * wall-time:     0 d,  0 h,  0 min,  0.066 sec
 *  cpu-time:     0 d,  0 h,  0 min,  0.066 sec
 * ratio c/w:     1.000 speedup


-------------------------   --------------------
FINAL SINGLE POINT ENERGY       -53.952450587310
-------------------------   --------------------

[file orca_scfhess/scfhess_read.cpp, line 59]: Error: GBW file contains no basis set information calc.gbw

[file orca_scfhess/scfhess_read.cpp, line 59]: Error: GBW file contains no basis set information calc.gbw


ORCA finished by error termination in SCF Hessian
Calling Command: /binaries/orca/orca_scfhess calc.scfhess.inp 
[file orca_tools/qcmsg.cpp, line 465]: 
  .... aborting the run

[file orca_tools/qcmsg.cpp, line 465]: 
  .... aborting the run

