
                                 *****************
                                 * O   R   C   A *
                                 *****************

                                            #,                                       
                                            ###                                      
                                            ####                                     
                                            #####                                    
                                            ######                                   
                                           ########,                                 
                                     ,,################,,,,,                         
                               ,,#################################,,                 
                          ,,##########################################,,             
                       ,#########################################, ''#####,          
                    ,#############################################,,   '####,        
                  ,##################################################,,,,####,       
                ,###########''''           ''''###############################       
              ,#####''   ,,,,##########,,,,          '''####'''          '####       
            ,##' ,,,,###########################,,,                        '##       
           ' ,,###''''                  '''############,,,                           
         ,,##''                                '''############,,,,        ,,,,,,###''
      ,#''                                            '''#######################'''  
     '                                                          ''''####''''         
             ,#######,   #######,   ,#######,      ##                                
            ,#'     '#,  ##    ##  ,#'     '#,    #''#        ######   ,####,        
            ##       ##  ##   ,#'  ##            #'  '#       #        #'  '#        
            ##       ##  #######   ##           ,######,      #####,   #    #        
            '#,     ,#'  ##    ##  '#,     ,#' ,#      #,         ##   #,  ,#        
             '#######'   ##     ##  '#######'  #'      '#     #####' # '####'        



                  #######################################################
                  #                        -***-                        #
                  #          Department of theory and spectroscopy      #
                  #    Directorship and core code : Frank Neese         #
                  #        Max Planck Institute fuer Kohlenforschung    #
                  #                Kaiser Wilhelm Platz 1               #
                  #                 D-45470 Muelheim/Ruhr               #
                  #                      Germany                        #
                  #                                                     #
                  #                  All rights reserved                #
                  #                        -***-                        #
                  #######################################################


                         Program Version 5.0.3 -  RELEASE  -


 With contributions from (in alphabetic order):
   Daniel Aravena         : Magnetic Suceptibility
   Michael Atanasov       : Ab Initio Ligand Field Theory (pilot matlab implementation)
   Alexander A. Auer      : GIAO ZORA, VPT2 properties, NMR spectrum
   Ute Becker             : Parallelization
   Giovanni Bistoni       : ED, misc. LED, open-shell LED, HFLD
   Martin Brehm           : Molecular dynamics
   Dmytro Bykov           : SCF Hessian
   Vijay G. Chilkuri      : MRCI spin determinant printing, contributions to CSF-ICE
   Dipayan Datta          : RHF DLPNO-CCSD density
   Achintya Kumar Dutta   : EOM-CC, STEOM-CC
   Dmitry Ganyushin       : Spin-Orbit,Spin-Spin,Magnetic field MRCI
   Miquel Garcia          : C-PCM and meta-GGA Hessian, CC/C-PCM, Gaussian charge scheme
   Yang Guo               : DLPNO-NEVPT2, F12-NEVPT2, CIM, IAO-localization
   Andreas Hansen         : Spin unrestricted coupled pair/coupled cluster methods
   Benjamin Helmich-Paris : MC-RPA, TRAH-SCF, COSX integrals
   Lee Huntington         : MR-EOM, pCC
   Robert Izsak           : Overlap fitted RIJCOSX, COSX-SCS-MP3, EOM
   Marcus Kettner         : VPT2
   Christian Kollmar      : KDIIS, OOCD, Brueckner-CCSD(T), CCSD density, CASPT2, CASPT2-K
   Simone Kossmann        : Meta GGA functionals, TD-DFT gradient, OOMP2, MP2 Hessian
   Martin Krupicka        : Initial AUTO-CI
   Lucas Lang             : DCDCAS
   Marvin Lechner         : AUTO-CI (C++ implementation), FIC-MRCC
   Dagmar Lenk            : GEPOL surface, SMD
   Dimitrios Liakos       : Extrapolation schemes; Compound Job, initial MDCI parallelization
   Dimitrios Manganas     : Further ROCIS development; embedding schemes
   Dimitrios Pantazis     : SARC Basis sets
   Anastasios Papadopoulos: AUTO-CI, single reference methods and gradients
   Taras Petrenko         : DFT Hessian,TD-DFT gradient, ASA, ECA, R-Raman, ABS, FL, XAS/XES, NRVS
   Peter Pinski           : DLPNO-MP2, DLPNO-MP2 Gradient
   Christoph Reimann      : Effective Core Potentials
   Marius Retegan         : Local ZFS, SOC
   Christoph Riplinger    : Optimizer, TS searches, QM/MM, DLPNO-CCSD(T), (RO)-DLPNO pert. Triples
   Tobias Risthaus        : Range-separated hybrids, TD-DFT gradient, RPA, STAB
   Michael Roemelt        : Original ROCIS implementation
   Masaaki Saitow         : Open-shell DLPNO-CCSD energy and density
   Barbara Sandhoefer     : DKH picture change effects
   Avijit Sen             : IP-ROCIS
   Kantharuban Sivalingam : CASSCF convergence, NEVPT2, FIC-MRCI
   Bernardo de Souza      : ESD, SOC TD-DFT
   Georgi Stoychev        : AutoAux, RI-MP2 NMR, DLPNO-MP2 response
   Willem Van den Heuvel  : Paramagnetic NMR
   Boris Wezisla          : Elementary symmetry handling
   Frank Wennmohs         : Technical directorship


 We gratefully acknowledge several colleagues who have allowed us to
 interface, adapt or use parts of their codes:
   Stefan Grimme, W. Hujo, H. Kruse, P. Pracht,  : VdW corrections, initial TS optimization,
                  C. Bannwarth, S. Ehlert          DFT functionals, gCP, sTDA/sTD-DF
   Ed Valeev, F. Pavosevic, A. Kumar             : LibInt (2-el integral package), F12 methods
   Garnet Chan, S. Sharma, J. Yang, R. Olivares  : DMRG
   Ulf Ekstrom                                   : XCFun DFT Library
   Mihaly Kallay                                 : mrcc  (arbitrary order and MRCC methods)
   Jiri Pittner, Ondrej Demel                    : Mk-CCSD
   Frank Weinhold                                : gennbo (NPA and NBO analysis)
   Christopher J. Cramer and Donald G. Truhlar   : smd solvation model
   Lars Goerigk                                  : TD-DFT with DH, B97 family of functionals
   V. Asgeirsson, H. Jonsson                     : NEB implementation
   FAccTs GmbH                                   : IRC, NEB, NEB-TS, DLPNO-Multilevel, CI-OPT
                                                   MM, QMMM, 2- and 3-layer-ONIOM, Crystal-QMMM,
                                                   LR-CPCM, SF, NACMEs, symmetry and pop. for TD-DFT,
                                                   nearIR, NL-DFT gradient (VV10), updates on ESD,
                                                   ML-optimized integration grids
   S Lehtola, MJT Oliveira, MAL Marques          : LibXC Library
   Liviu Ungur et al                             : ANISO software


 Your calculation uses the libint2 library for the computation of 2-el integrals
 For citations please refer to: http://libint.valeyev.net

 Your ORCA version has been built with support for libXC version: 5.1.0
 For citations please refer to: https://tddft.org/programs/libxc/

 This ORCA versions uses:
   CBLAS   interface :  Fast vector & matrix operations
   LAPACKE interface :  Fast linear algebra routines
   SCALAPACK package :  Parallel linear algebra routines
   Shared memory     :  Shared parallel matrices
   BLAS/LAPACK       :  OpenBLAS 0.3.15  USE64BITINT DYNAMIC_ARCH NO_AFFINITY Zen SINGLE_THREADED
        Core in use  :  Zen
   Copyright (c) 2011-2014, The OpenBLAS Project


leaving
================================================================================

----- Orbital basis set information -----
================================================================================
                                        WARNINGS
                       Please study these warnings very carefully!
================================================================================


WARNING: Direct SCF is incompatible with Method<>HF and Method<>DFT
  ===> : conventional SCF is chosen

WARNING: The NDO methods need Guess=HUECKEL or Guess=HCORE or Guess=MOREAD
  ===> : Guess is set to Hueckel

WARNING: The NDO methods need %rel::SOCType==1
  ===> : %rel::SOCType is set to 1

WARNING: The NDO methods cannot have frozencore=1
  ===> : %method FrozenCore=0 end

WARNING: The NDO methods cannot be used with Shark
  ===> : Turning Shark off

WARNING: Analytical Hessian for geometry optimization 
         with Method<>HF or Method<>DFT is not available!
  ===> : Switching to Numerical Hessian!

WARNING: Geometry Optimization
  ===> : Switching off AutoStart
         For restart on a previous wavefunction, please use MOREAD
================================================================================
                                       INPUT FILE
================================================================================
NAME = calc.inp
|  1> !OPTTS AM1
|  2> *xyz 0 1
|  3> N    1.08764072  -0.33994563  -0.00972525
|  4> H    1.99826837   0.05502843   0.00651241
|  5> H    0.59453997  -0.48560162   0.83949232
|  6> H    0.66998094  -0.58930117  -0.87511947
|  7> *
|  8> %geom
|  9> Calc_Hess true
| 10> end
| 11> %pal
| 12> nprocs 1
| 13> endd                         ****END OF INPUT****
================================================================================

                       *****************************
                       * Geometry Optimization Run *
                       *****************************

Geometry optimization settings:
Update method            Update   .... Bofill
Choice of coordinates    CoordSys .... Z-matrix Internals
Initial Hessian          InHess   .... Almoef's Model

Convergence Tolerances:
Energy Change            TolE     ....  5.0000e-06 Eh
Max. Gradient            TolMAXG  ....  3.0000e-04 Eh/bohr
RMS Gradient             TolRMSG  ....  1.0000e-04 Eh/bohr
Max. Displacement        TolMAXD  ....  4.0000e-03 bohr
RMS Displacement         TolRMSD  ....  2.0000e-03 bohr
Strict Convergence                ....  False
------------------------------------------------------------------------------
                        ORCA OPTIMIZATION COORDINATE SETUP
------------------------------------------------------------------------------

The optimization will be done in new redundant internal coordinates
Making redundant internal coordinates   ...  (new redundants) done
Following TS mode number                ...     0
Evaluating the initial hessian          ...  (Is done on the fly) done
Evaluating the coordinates              ...  done
Calculating the B-matrix                .... done
Calculating the G-matrix                .... done
Diagonalizing the G-matrix              .... done
The first mode is                       ....    1
The number of degrees of freedom        ....    6

    -----------------------------------------------------------------
                    Redundant Internal Coordinates


    -----------------------------------------------------------------
         Definition                    Initial Value    d2E/dq (diagonal element)
    -----------------------------------------------------------------
      1. B(H   1,N   0)                  0.9927         0.000000   
      2. B(H   2,N   0)                  0.9927         0.000000   
      3. B(H   3,N   0)                  0.9927         0.000000   
      4. A(H   1,N   0,H   3)          120.0077         0.000000   
      5. A(H   2,N   0,H   3)          119.9916         0.000000   
      6. A(H   1,N   0,H   2)          120.0007         0.000000   
      7. I(H   1,H   3,H   2,N   0)      0.0008         0.000000   
    -----------------------------------------------------------------

Number of atoms                         .... 4
Number of degrees of freedom            .... 7

         *************************************************************
         *                GEOMETRY OPTIMIZATION CYCLE   1            *
         *************************************************************
---------------------------------
CARTESIAN COORDINATES (ANGSTROEM)
---------------------------------
  N      1.087641   -0.339946   -0.009725
  H      1.998268    0.055028    0.006512
  H      0.594540   -0.485602    0.839492
  H      0.669981   -0.589301   -0.875119

----------------------------
CARTESIAN COORDINATES (A.U.)
----------------------------
  NO LB      ZA    FRAG     MASS         X           Y           Z
   0 N     5.0000    0    14.007    2.055343   -0.642404   -0.018378
   1 H     1.0000    0     1.008    3.776180    0.103989    0.012307
   2 H     1.0000    0     1.008    1.123518   -0.917654    1.586411
   3 H     1.0000    0     1.008    1.266080   -1.113618   -1.653736

--------------------------------
INTERNAL COORDINATES (ANGSTROEM)
--------------------------------
 N      0   0   0     0.000000000000     0.00000000     0.00000000
 H      1   0   0     0.992729009660     0.00000000     0.00000000
 H      1   2   0     0.992740901882   120.00072922     0.00000000
 H      1   2   3     0.992736134714   120.00768762   179.99907711

---------------------------
INTERNAL COORDINATES (A.U.)
---------------------------
 N      0   0   0     0.000000000000     0.00000000     0.00000000
 H      1   0   0     1.875985953455     0.00000000     0.00000000
 H      1   2   0     1.876008426500   120.00072922     0.00000000
 H      1   2   3     1.875999417858   120.00768762   179.99907711

----------------------------
SLATER BASIS SET DIM=   7
----------------------------
  0 N     2 shells
 l=0 nsto= 1
    2       2.315410000000        1.000000000000
 l=1 nsto= 1
    2       2.157940000000        1.000000000000
  1 H     1 shells
 l=0 nsto= 1
    1       1.188078000000        1.000000000000
  2 H     1 shells
 l=0 nsto= 1
    1       1.188078000000        1.000000000000
  3 H     1 shells
 l=0 nsto= 1
    1       1.188078000000        1.000000000000
------------------------------------------------------------------------------
                           ORCA NDO INTEGRAL CALCULATION
------------------------------------------------------------------------------

--------------
NDO PARAMETERS
--------------

Gamma integral treatment              ... MOPAC
Nuclear repulsuion treatment          ... AM1-style
Interaction factors:
s-s (sigma) =    1.0000
s-p (sigma) =    1.0000
s-d (sigma) =    1.0000
p-p (sigma) =    1.0000  p-p(pi) =    1.0000
p-d (sigma) =    1.0000  p-d(pi) =    1.0000
d-d (sigma) =    1.0000  d-d(pi) =    1.0000 d-d (delta) =    1.0000

--------------------------
Parameters for Element H :
--------------------------
 One-electron parameters (in eV)
  U(s)  =   -11.396427 Beta(s) =     6.173787 Neff(s) =     1.000000
 One-center electron repulsion parameters (in eV)
  G(s,s)=    12.848000
--------------------------
Parameters for Element N :
--------------------------
 One-electron parameters (in eV)
  U(s)  =   -71.860000 Beta(s) =    20.299110 Neff(s) =     2.000000
  U(p)  =   -57.167581 Beta(p) =    18.238666 Neff(p) =     3.000000 
 One-center electron repulsion parameters (in eV)
  G(s,s)=    13.590000
  G(s,p)=    12.660000 G(p,p)  =    12.053330
 Slater-Condon parameters (in eV)
 F2(p,p)=     5.7917 G1(s,p)=    9.4200

 Number of atoms                    ....    4
 Number of basis functions          ....    7

 Overlap integrals                  .... done
 One electron matrix                .... done
 Nuclear repulsion                  .... done
 Integral list                      .... done
 Electron-electron repulsion        .... done
-------------------------------------------------------------------------------
                                 ORCA SCF
-------------------------------------------------------------------------------

------------
SCF SETTINGS
------------
Hamiltonian:
 ZDO-Hamiltonian        Method          .... NDDO


General Settings:
 Integral files         IntName         .... calc
 Hartree-Fock type      HFTyp           .... RHF
 Total Charge           Charge          ....    0
 Multiplicity           Mult            ....    1
 Number of Electrons    NEL             ....    8
 Basis Dimension        Dim             ....    7
 Nuclear Repulsion      ENuc            ....      6.8233051455 Eh

Convergence Acceleration:
 DIIS                   CNVDIIS         .... on
   Start iteration      DIISMaxIt       ....    12
   Startup error        DIISStart       ....  0.200000
   # of expansion vecs  DIISMaxEq       ....     5
   Bias factor          DIISBfac        ....   1.050
   Max. coefficient     DIISMaxC        ....  10.000
 Trust-Rad. Augm. Hess. CNVTRAH         .... off
 SOSCF                  CNVSOSCF        .... on
   Start iteration      SOSCFMaxIt      ....   150
   Startup grad/error   SOSCFStart      ....  0.003300
 Level Shifting         CNVShift        .... on
   Level shift para.    LevelShift      ....    0.2500
   Turn off err/grad.   ShiftErr        ....    0.0010
 Zerner damping         CNVZerner       .... off
 Static damping         CNVDamp         .... on
   Fraction old density DampFac         ....    0.7000
   Max. Damping (<1)    DampMax         ....    0.9800
   Min. Damping (>=0)   DampMin         ....    0.0000
   Turn off err/grad.   DampErr         ....    0.1000
 Fernandez-Rico         CNVRico         .... off

SCF Procedure:
 Maximum # iterations   MaxIter         ....   125
 SCF integral mode      SCFMode         .... Conventional
 Integral Buffer length BufferLength    .... 1048576
 Integral index format  IndFormat       ....     0
 Integral value format  ValFormat       ....     0
 Integral Storage       Thresh          ....  2.500e-11 Eh

Convergence Tolerance:
 Convergence Check Mode ConvCheckMode   .... Total+1el-Energy
 Convergence forced     ConvForced      .... 0
 Energy Change          TolE            ....  1.000e-08 Eh
 1-El. energy change                    ....  1.000e-05 Eh
 Orbital Gradient       TolG            ....  1.000e-05
 Orbital Rotation angle TolX            ....  1.000e-05
 DIIS Error             TolErr          ....  5.000e-07


Diagonalization of the overlap matrix:
Smallest eigenvalue                        ... 3.978e-01
Time for diagonalization                   ...    0.000 sec
Threshold for overlap eigenvalues          ... 1.000e-08
Number of eigenvalues below threshold      ... 0
Time for construction of square roots      ...    0.000 sec
Total time needed                          ...    0.000 sec

-------------------------------
INITIAL GUESS: EXTENDED HUECKEL
-------------------------------
EHT matrix was read from disk
EHT matrix was diagonalized
Initial density was built
                      ------------------
                      INITIAL GUESS DONE
                      ------------------

 InCore treatment chosen:
   Memory dedicated               ...    1024 MB
   Memory needed                  ...      0 MB
   Number of tiny    integrals    ...       0
   Number of small   integrals    ...       0
   Number of regular integrals    ...      52

--------------
SCF ITERATIONS
--------------
ITER       Energy         Delta-E        Max-DP      RMS-DP      [F,P]     Damp
  0     -9.1270476289   0.000000000000 0.00645380  0.00162243  0.0179253 0.7000
  1     -9.1272549878  -0.000207358925 0.00653189  0.00164247  0.0152829 0.7000
                               ***Turning on DIIS***
  2     -9.1274416280  -0.000186640166 0.01860837  0.00468096  0.0126103 0.0000
  3     -9.1325927385  -0.005151110465 0.00896877  0.00226636  0.0049994 0.0000
                      *** Initiating the SOSCF procedure ***
                           *** Shutting down DIIS ***
                      *** Re-Reading the Fockian *** 
                      *** Removing any level shift *** 
ITER      Energy       Delta-E        Grad      Rot      Max-DP    RMS-DP
  4     -9.12950366   0.0030890773  0.001386  0.001386  0.002497  0.000636
  5     -9.12811628   0.0013873851  0.000219  0.000258  0.000511  0.000132
  6     -9.12811659  -0.0000003167  0.000081  0.000150  0.000298  0.000077
                  ***Gradient check signals convergence***
              ***Rediagonalizing the Fockian in SOSCF/NRSCF***

               *****************************************************
               *                     SUCCESS                       *
               *           SCF CONVERGED AFTER   7 CYCLES          *
               *****************************************************


----------------
TOTAL SCF ENERGY
----------------

Total Energy       :           -9.12811664 Eh            -248.38868 eV

Components:
Nuclear Repulsion  :            6.82330515 Eh             185.67157 eV
Electronic Energy  :          -15.95142179 Eh            -434.06025 eV
One Electron Energy:          -26.50365178 Eh            -721.20103 eV
Two Electron Energy:           10.55222999 Eh             287.14078 eV


---------------
SCF CONVERGENCE
---------------

  Last Energy change         ...   -4.9625e-08  Tolerance :   1.0000e-08
  Last MAX-Density change    ...    5.6398e-07  Tolerance :   1.0000e-07
  Last RMS-Density change    ...    1.0364e-07  Tolerance :   5.0000e-09
  Last Orbital Gradient      ...    4.1409e-07  Tolerance :   1.0000e-05
  Last Orbital Rotation      ...    3.1344e-07  Tolerance :   1.0000e-05

             **** THE GBW FILE WAS UPDATED (calc.gbw) ****
             **** DENSITY calc.scfp WAS UPDATED ****
             **** ENERGY FILE WAS UPDATED (calc.en.tmp) ****
             **** THE GBW FILE WAS UPDATED (calc.gbw) ****
             **** DENSITY calc.scfp WAS UPDATED ****
----------------
ORBITAL ENERGIES
----------------

  NO   OCC          E(Eh)            E(eV) 
   0   2.0000      -1.172775       -31.9128 
   1   2.0000      -0.588526       -16.0146 
   2   2.0000      -0.588495       -16.0138 
   3   2.0000      -0.349800        -9.5185 
   4   0.0000       0.147558         4.0153 
   5   0.0000       0.261840         7.1250 
   6   0.0000       0.261862         7.1256 

                    ********************************
                    * MULLIKEN POPULATION ANALYSIS *
                    ********************************

-----------------------
MULLIKEN ATOMIC CHARGES
-----------------------
   0 N :   -0.763907
   1 H :    0.254659
   2 H :    0.254615
   3 H :    0.254634
Sum of atomic charges:   -0.0000000

--------------------------------
MULLIKEN REDUCED ORBITAL CHARGES
--------------------------------
  0 N s       :     1.655874  s :     1.655874
      pz      :     1.059033  p :     4.108034
      px      :     1.202184
      py      :     1.846817
  1 H s       :     0.745341  s :     0.745341
  2 H s       :     0.745385  s :     0.745385
  3 H s       :     0.745366  s :     0.745366


                     *******************************
                     * LOEWDIN POPULATION ANALYSIS *
                     *******************************

----------------------
LOEWDIN ATOMIC CHARGES
----------------------
   0 N :   -0.595485
   1 H :    0.198514
   2 H :    0.198478
   3 H :    0.198493

-------------------------------
LOEWDIN REDUCED ORBITAL CHARGES
-------------------------------
  0 N s       :     1.436597  s :     1.436597
      pz      :     1.084328  p :     4.158888
      px      :     1.223627
      py      :     1.850934
  1 H s       :     0.801486  s :     0.801486
  2 H s       :     0.801522  s :     0.801522
  3 H s       :     0.801507  s :     0.801507


                      *****************************
                      * MAYER POPULATION ANALYSIS *
                      *****************************

  NA   - Mulliken gross atomic population
  ZA   - Total nuclear charge
  QA   - Mulliken gross atomic charge
  VA   - Mayer's total valence
  BVA  - Mayer's bonded valence
  FA   - Mayer's free valence

  ATOM       NA         ZA         QA         VA         BVA        FA
  0 N      7.2621     5.0000    -2.2621     1.0703     6.9933    -5.9230
  1 H      1.3078     1.0000    -0.3078     0.9053     2.3496    -1.4444
  2 H      1.3078     1.0000    -0.3078     0.9053     2.3497    -1.4444
  3 H      1.3078     1.0000    -0.3078     0.9053     2.3497    -1.4444

  Mayer bond orders larger than 0.100000
B(  0-N ,  1-H ) :   2.3311 B(  0-N ,  2-H ) :   2.3311 B(  0-N ,  3-H ) :   2.3311 


-------
TIMINGS
-------

Total SCF time: 0 days 0 hours 0 min 0 sec 

Total time                  ....       0.225 sec
Sum of individual times     ....       0.010 sec  (  4.3%)

Fock matrix formation       ....       0.009 sec  (  3.9%)
Diagonalization             ....       0.000 sec  (  0.1%)
Density matrix formation    ....       0.000 sec  (  0.0%)
Population analysis         ....       0.000 sec  (  0.2%)
Initial guess               ....       0.000 sec  (  0.0%)
Orbital Transformation      ....       0.000 sec  (  0.0%)
Orbital Orthonormalization  ....       0.000 sec  (  0.0%)
DIIS solution               ....       0.000 sec  (  0.1%)
SOSCF solution              ....       0.000 sec  (  0.1%)

Maximum memory used throughout the entire SCF-calculation: 222.8 MB

-------------------------   --------------------
FINAL SINGLE POINT ENERGY        -9.128116642368
-------------------------   --------------------

------------------------------------------------------------------------------
                          SCF GRADIENT FOR NDO METHODS
------------------------------------------------------------------------------

The cartesian gradient:
   1   N   :    0.000036899    0.000010875   -0.000012322
   2   H   :    0.013756681    0.005973680    0.000252711
   3   H   :   -0.007463836   -0.002207206    0.012827600
   4   H   :   -0.006329744   -0.003777349   -0.013067990

Norm of the cartesian gradient     ...    0.025985206
RMS gradient                       ...    0.007501283
MAX gradient                       ...    0.013756681

----------------------------------------------------------------------------
                           ORCA NUMERICAL FREQUENCIES
----------------------------------------------------------------------------

Number of atoms                ... 4
Central differences            ... NOT used
Number of displacements        ... 12
Numerical increment            ... 5.000e-03 bohr
IR-spectrum generation         ... on
Raman-spectrum generation      ... off
Surface Crossing Hessian       ... off

The output will be reduced. Please look at the following files:
SCF program output             ... >calc.lastscf
Integral program output        ... >calc.lastint
Gradient program output        ... >calc.lastgrad
Dipole moment program output   ... >calc.lastmom
AutoCI program output          ... >calc.lastautoci

	<< Calculating on displaced geometry   1 (of  13) >>
	<< Calculating on displaced geometry   2 (of  13) >>
	<< Calculating on displaced geometry   3 (of  13) >>
	<< Calculating on displaced geometry   4 (of  13) >>
	<< Calculating on displaced geometry   5 (of  13) >>
	<< Calculating on displaced geometry   6 (of  13) >>
	<< Calculating on displaced geometry   7 (of  13) >>
	<< Calculating on displaced geometry   8 (of  13) >>
	<< Calculating on displaced geometry   9 (of  13) >>
	<< Calculating on displaced geometry  10 (of  13) >>
	<< Calculating on displaced geometry  11 (of  13) >>
	<< Calculating on displaced geometry  12 (of  13) >>
	<< Calculating on displaced geometry  13 (of  13) >>

-----------------------
VIBRATIONAL FREQUENCIES
-----------------------

Scaling factor for frequencies =  1.000000000 (already applied!)

   0:         0.00 cm**-1
   1:         0.00 cm**-1
   2:         0.00 cm**-1
   3:         0.00 cm**-1
   4:         0.00 cm**-1
   5:         0.00 cm**-1
   6:      -719.65 cm**-1 ***imaginary mode***
   7:      1715.75 cm**-1
   8:      1717.00 cm**-1
   9:      3497.21 cm**-1
  10:      3503.12 cm**-1
  11:      3521.75 cm**-1


------------
NORMAL MODES
------------

These modes are the cartesian displacements weighted by the diagonal matrix
M(i,i)=1/sqrt(m[i]) where m[i] is the mass of the displaced atom
Thus, these vectors are normalized but *not* orthogonal

                  0          1          2          3          4          5    
      0       0.000000   0.000000   0.000000   0.000000   0.000000   0.000000
      1       0.000000   0.000000   0.000000   0.000000   0.000000   0.000000
      2       0.000000   0.000000   0.000000   0.000000   0.000000   0.000000
      3       0.000000   0.000000   0.000000   0.000000   0.000000   0.000000
      4       0.000000   0.000000   0.000000   0.000000   0.000000   0.000000
      5       0.000000   0.000000   0.000000   0.000000   0.000000   0.000000
      6       0.000000   0.000000   0.000000   0.000000   0.000000   0.000000
      7       0.000000   0.000000   0.000000   0.000000   0.000000   0.000000
      8       0.000000   0.000000   0.000000   0.000000   0.000000   0.000000
      9       0.000000   0.000000   0.000000   0.000000   0.000000   0.000000
     10       0.000000   0.000000   0.000000   0.000000   0.000000   0.000000
     11       0.000000   0.000000   0.000000   0.000000   0.000000   0.000000
                  6          7          8          9         10         11    
      0       0.048982  -0.070151  -0.030987   0.070033   0.028185  -0.011907
      1      -0.113229  -0.027562  -0.019256   0.027461   0.017840  -0.006787
      2       0.008874   0.035968  -0.075190  -0.035770   0.071340  -0.021346
      3      -0.227083  -0.015990  -0.048101  -0.688130  -0.480152  -0.378684
      4       0.524468  -0.035336   0.036271  -0.300070  -0.205447  -0.165330
      5      -0.040749  -0.363056   0.724637  -0.030762   0.025846  -0.016994
      6      -0.226474   0.329376   0.534396  -0.307304   0.333356   0.209594
      7       0.524557   0.163317   0.256726  -0.087716   0.103269   0.060002
      8      -0.041568   0.257731   0.330082   0.569352  -0.514712  -0.381637
      9      -0.227091   0.661421  -0.055704   0.022269  -0.244862   0.334545
     10       0.524383   0.255017  -0.025418   0.006194  -0.145723   0.199633
     11      -0.040991  -0.394479  -0.009894  -0.041537  -0.502457   0.695257


-----------
IR SPECTRUM
-----------

 Mode   freq       eps      Int      T**2         TX        TY        TZ
       cm**-1   L/(mol*cm) km/mol    a.u.
----------------------------------------------------------------------------
  7:   1715.75   0.031279  158.07  0.005689  (-0.063342 -0.024772  0.032607)
  8:   1717.00   0.030500  154.13  0.005543  (-0.027909 -0.017370 -0.066803)
  9:   3497.21   0.227226  1148.31  0.020276  (-0.119636 -0.046842  0.061392)
 10:   3503.12   0.205173  1036.86  0.018277  (-0.048694 -0.030670 -0.122333)
 11:   3521.75   0.022293  112.66  0.001975  ( 0.020693  0.011992  0.037462)

* The epsilon (eps) is given for a Dirac delta lineshape.
** The dipole moment derivative (T) already includes vibrational overlap.

The first frequency considered to be a vibration is 7
The total number of vibrations considered is 5


--------------------------
THERMOCHEMISTRY AT 298.15K
--------------------------

Temperature         ... 298.15 K
Pressure            ... 1.00 atm
Total Mass          ... 17.03 AMU

Throughout the following assumptions are being made:
  (1) The electronic state is orbitally nondegenerate
  (2) There are no thermally accessible electronically excited states
  (3) Hindered rotations indicated by low frequency modes are not
      treated as such but are treated as vibrations and this may
      cause some error
  (4) All equations used are the standard statistical mechanics
      equations for an ideal gas
  (5) All vibrations are strictly harmonic

freq.    1715.75  E(vib)   ...       0.00 
freq.    1717.00  E(vib)   ...       0.00 
freq.    3497.21  E(vib)   ...       0.00 
freq.    3503.12  E(vib)   ...       0.00 
freq.    3521.75  E(vib)   ...       0.00 

------------
INNER ENERGY
------------

The inner energy is: U= E(el) + E(ZPE) + E(vib) + E(rot) + E(trans)
    E(el)   - is the total energy from the electronic structure calculation
              = E(kin-el) + E(nuc-el) + E(el-el) + E(nuc-nuc)
    E(ZPE)  - the the zero temperature vibrational energy from the frequency calculation
    E(vib)  - the the finite temperature correction to E(ZPE) due to population
              of excited vibrational states
    E(rot)  - is the rotational thermal energy
    E(trans)- is the translational thermal energy

Summary of contributions to the inner energy U:
Electronic energy                ...     -9.12811664 Eh
Zero point energy                ...      0.03179144 Eh      19.95 kcal/mol
Thermal vibrational correction   ...      0.00000396 Eh       0.00 kcal/mol
Thermal rotational correction    ...      0.00141627 Eh       0.89 kcal/mol
Thermal translational correction ...      0.00141627 Eh       0.89 kcal/mol
-----------------------------------------------------------------------
Total thermal energy                     -9.09348870 Eh


Summary of corrections to the electronic energy:
(perhaps to be used in another calculation)
Total thermal correction                  0.00283650 Eh       1.78 kcal/mol
Non-thermal (ZPE) correction              0.03179144 Eh      19.95 kcal/mol
-----------------------------------------------------------------------
Total correction                          0.03462795 Eh      21.73 kcal/mol


--------
ENTHALPY
--------

The enthalpy is H = U + kB*T
                kB is Boltzmann's constant
Total free energy                 ...     -9.09348870 Eh 
Thermal Enthalpy correction       ...      0.00094421 Eh       0.59 kcal/mol
-----------------------------------------------------------------------
Total Enthalpy                    ...     -9.09254449 Eh


Note: Rotational entropy computed according to Herzberg 
Infrared and Raman Spectra, Chapter V,1, Van Nostrand Reinhold, 1945 
Point Group:  C2v, Symmetry Number:   2  
Rotational constants in cm-1:    11.313994    11.312025     5.656505 

Vibrational entropy computed according to the QRRHO of S. Grimme
Chem.Eur.J. 2012 18 9955


-------
ENTROPY
-------

The entropy contributions are T*S = T*(S(el)+S(vib)+S(rot)+S(trans))
     S(el)   - electronic entropy
     S(vib)  - vibrational entropy
     S(rot)  - rotational entropy
     S(trans)- translational entropy
The entropies will be listed as multiplied by the temperature to get
units of energy

Electronic entropy                ...      0.00000000 Eh      0.00 kcal/mol
Vibrational entropy               ...      0.00000444 Eh      0.00 kcal/mol
Rotational entropy                ...      0.00574777 Eh      3.61 kcal/mol
Translational entropy             ...      0.01636425 Eh     10.27 kcal/mol
-----------------------------------------------------------------------
Final entropy term                ...      0.02211646 Eh     13.88 kcal/mol

In case the symmetry of your molecule has not been determined correctly
or in case you have a reason to use a different symmetry number we print 
out the resulting rotational entropy values for sn=1,12 :
 --------------------------------------------------------
|  sn= 1 | S(rot)=       0.00640223 Eh      4.02 kcal/mol|
|  sn= 2 | S(rot)=       0.00574777 Eh      3.61 kcal/mol|
|  sn= 3 | S(rot)=       0.00536494 Eh      3.37 kcal/mol|
|  sn= 4 | S(rot)=       0.00509332 Eh      3.20 kcal/mol|
|  sn= 5 | S(rot)=       0.00488263 Eh      3.06 kcal/mol|
|  sn= 6 | S(rot)=       0.00471048 Eh      2.96 kcal/mol|
|  sn= 7 | S(rot)=       0.00456494 Eh      2.86 kcal/mol|
|  sn= 8 | S(rot)=       0.00443886 Eh      2.79 kcal/mol|
|  sn= 9 | S(rot)=       0.00432765 Eh      2.72 kcal/mol|
|  sn=10 | S(rot)=       0.00422817 Eh      2.65 kcal/mol|
|  sn=11 | S(rot)=       0.00413818 Eh      2.60 kcal/mol|
|  sn=12 | S(rot)=       0.00405603 Eh      2.55 kcal/mol|
 --------------------------------------------------------


-------------------
GIBBS FREE ENERGY
-------------------

The Gibbs free energy is G = H - T*S

Total enthalpy                    ...     -9.09254449 Eh 
Total entropy correction          ...     -0.02211646 Eh    -13.88 kcal/mol
-----------------------------------------------------------------------
Final Gibbs free energy         ...     -9.11466095 Eh

For completeness - the Gibbs free energy minus the electronic energy
G-E(el)                           ...      0.01345569 Eh      8.44 kcal/mol


Actual Hessian File stored as calc.001.hess
------------------------------------------------------------------------------
                         ORCA GEOMETRY RELAXATION STEP
------------------------------------------------------------------------------

Reading the OPT-File                    .... done
Getting information on internals        .... done
Copying old internal coords+grads       .... done
Making the new internal coordinates     .... (new redundants).... done
Validating the new internal coordinates .... (new redundants).... done
Calculating the B-matrix                .... done
Calculating the G,G- and P matrices     .... done
Transforming gradient to internals      .... done
Projecting the internal gradient        .... done
Number of atoms                         ....   4
Number of internal coordinates          ....   7
Current Energy                          ....    -9.128116642 Eh
Current gradient norm                   ....     0.025985206 Eh/bohr
Maximum allowed component of the step   ....  0.300
Current trust radius                    ....  0.300
Evaluating the initial hessian          ....  (read) 
(Reading Exact Hessian)...  
InHessName: calc.hess	The file <calc.hess> is opened as a .hess file
done
done
Diagonalizing the Hessian               .... done
Dimension of the hessian                .... 7
Lowest eigenvalues of the non projected Hessian:
 -0.019053313  0.000000000  0.118460541  0.118741604  0.427800334
done
Projecting the Hessian                  .... done
Diagonalizing the Hessian               .... done
Dimension of the hessian                ....   7
Lowest eigenvalues of the Hessian:
 -0.019053313  0.118460541  0.118741604  0.427800334  0.428765233
Hessian has   1 negative eigenvalues
Taking P-RFO step
Searching for lambda that maximizes along the lowest mode
TS mode is mode number   0 with eigenvalue  -0.01905331 and components:
   1.    0.00033807
   2.    0.00039951
   3.   -0.00002926
   4.    0.00041371
   5.   -0.00004626
   6.   -0.00038355
   7.    0.99999970

Lambda that maximizes along the TS mode:       0.00000001
Searching for lambda that minimizes along all other modes
In cycle   1: lambdaN =  -0.00142438   step =   0.00142438
In cycle   2: lambdaN =  -0.00142439   step =   0.00000001
In cycle   3: lambdaN =  -0.00142439   step =   0.00000000
Lambda that minimizes along all other modes:  -0.00142439
The final length of the internal step   ....       0.0548
Converting the step to cartesian space:
 Initial RMS(Int)=    0.0207204622
Transforming coordinates:
 Iter   0:  RMS(Cart)=    0.0158245132 RMS(Int)=    0.0207204972
 Iter   1:  RMS(Cart)=    0.0000026892 RMS(Int)=    0.0000055203
 Iter   2:  RMS(Cart)=    0.0000000467 RMS(Int)=    0.0000000963
done
Storing new coordinates                 .... done

                                .--------------------.
          ----------------------|Geometry convergence|-------------------------
          Item                value                   Tolerance       Converged
          ---------------------------------------------------------------------
          RMS gradient        0.0098214736            0.0001000000      NO
          MAX gradient        0.0150042564            0.0003000000      NO
          RMS step            0.0207204622            0.0020000000      NO
          MAX step            0.0316934017            0.0040000000      NO
          ........................................................
          Max(Bonds)      0.0168      Max(Angles)    0.02
          Max(Dihed)        0.00      Max(Improp)    0.04
          ---------------------------------------------------------------------

The optimization has not yet converged - more geometry cycles are needed


    ---------------------------------------------------------------------------
                         Redundant Internal Coordinates
                            (Angstroem and degrees)

        Definition                    Value    dE/dq     Step     New-Value  comp.(TS mode)
    ----------------------------------------------------------------------------
     1. B(H   1,N   0)                0.9927  0.015000 -0.0168    0.9760   
     2. B(H   2,N   0)                0.9927  0.015004 -0.0168    0.9760   
     3. B(H   3,N   0)                0.9927  0.015004 -0.0167    0.9760   
     4. A(H   1,N   0,H   3)          120.01  0.000019   -0.00    120.00   
     5. A(H   2,N   0,H   3)          119.99 -0.000023    0.02    120.01   
     6. A(H   1,N   0,H   2)          120.00  0.000004   -0.02    119.98   
     7. I(H   1,H   3,H   2,N   0)      0.00  0.000002    0.04      0.04          1.00
    ----------------------------------------------------------------------------

         *************************************************************
         *                GEOMETRY OPTIMIZATION CYCLE   2            *
         *************************************************************
---------------------------------
CARTESIAN COORDINATES (ANGSTROEM)
---------------------------------
  N      1.087645   -0.340129   -0.009725
  H      1.982806    0.048388    0.006288
  H      0.602942   -0.483041    0.825233
  H      0.677037   -0.585037   -0.860636

----------------------------
CARTESIAN COORDINATES (A.U.)
----------------------------
  NO LB      ZA    FRAG     MASS         X           Y           Z
   0 N     5.0000    0    14.007    2.055351   -0.642751   -0.018378
   1 H     1.0000    0     1.008    3.746960    0.091440    0.011883
   2 H     1.0000    0     1.008    1.139395   -0.912815    1.559465
   3 H     1.0000    0     1.008    1.279414   -1.105561   -1.626366

--------------------------------
INTERNAL COORDINATES (ANGSTROEM)
--------------------------------
 N      0   0   0     0.000000000000     0.00000000     0.00000000
 H      1   0   0     0.975968647528     0.00000000     0.00000000
 H      1   2   0     0.975969476065   119.98488925     0.00000000
 H      1   2   3     0.976026729290   120.00359273   179.95299143

---------------------------
INTERNAL COORDINATES (A.U.)
---------------------------
 N      0   0   0     0.000000000000     0.00000000     0.00000000
 H      1   0   0     1.844313459122     0.00000000     0.00000000
 H      1   2   0     1.844315024829   119.98488925     0.00000000
 H      1   2   3     1.844423217745   120.00359273   179.95299143

------------------------------------------------------------------------------
                           ORCA NDO INTEGRAL CALCULATION
------------------------------------------------------------------------------

--------------
NDO PARAMETERS
--------------

Gamma integral treatment              ... MOPAC
Nuclear repulsuion treatment          ... AM1-style
Interaction factors:
s-s (sigma) =    1.0000
s-p (sigma) =    1.0000
s-d (sigma) =    1.0000
p-p (sigma) =    1.0000  p-p(pi) =    1.0000
p-d (sigma) =    1.0000  p-d(pi) =    1.0000
d-d (sigma) =    1.0000  d-d(pi) =    1.0000 d-d (delta) =    1.0000

--------------------------
Parameters for Element H :
--------------------------
 One-electron parameters (in eV)
  U(s)  =   -11.396427 Beta(s) =     6.173787 Neff(s) =     1.000000
 One-center electron repulsion parameters (in eV)
  G(s,s)=    12.848000
--------------------------
Parameters for Element N :
--------------------------
 One-electron parameters (in eV)
  U(s)  =   -71.860000 Beta(s) =    20.299110 Neff(s) =     2.000000
  U(p)  =   -57.167581 Beta(p) =    18.238666 Neff(p) =     3.000000 
 One-center electron repulsion parameters (in eV)
  G(s,s)=    13.590000
  G(s,p)=    12.660000 G(p,p)  =    12.053330
 Slater-Condon parameters (in eV)
 F2(p,p)=     5.7917 G1(s,p)=    9.4200

 Number of atoms                    ....    4
 Number of basis functions          ....    7

 Overlap integrals                  .... done
 One electron matrix                .... done
 Nuclear repulsion                  .... done
 Integral list                      .... done
 Electron-electron repulsion        .... done

Diagonalization of the overlap matrix:
Smallest eigenvalue                        ... 3.865e-01
Time for diagonalization                   ...    0.000 sec
Threshold for overlap eigenvalues          ... 1.000e-08
Number of eigenvalues below threshold      ... 0
Time for construction of square roots      ...    0.000 sec
Total time needed                          ...    0.000 sec


 InCore treatment chosen:
   Memory dedicated               ...    1024 MB
   Memory needed                  ...      0 MB
   Number of tiny    integrals    ...       0
   Number of small   integrals    ...       0
   Number of regular integrals    ...      52

--------------
SCF ITERATIONS
--------------
ITER       Energy         Delta-E        Max-DP      RMS-DP      [F,P]     Damp
  0     -9.1287360412   0.000000000000 0.00208601  0.00038193  0.0070801 0.7000
                      *** Initiating the SOSCF procedure ***
                      *** Re-Reading the Fockian *** 
                      *** Removing any level shift *** 
ITER      Energy       Delta-E        Grad      Rot      Max-DP    RMS-DP
  1     -9.12875375  -0.0000177092  0.001327  0.001327  0.006377  0.001169
  2     -9.12880782  -0.0000540687  0.001317  0.000984  0.001780  0.000327
  3     -9.12881114  -0.0000033225  0.000307  0.000301  0.000544  0.000101
  4     -9.12881134  -0.0000001957  0.000009  0.000017  0.000017  0.000005
                 **** Energy Check signals convergence ****
              ***Rediagonalizing the Fockian in SOSCF/NRSCF***

               *****************************************************
               *                     SUCCESS                       *
               *           SCF CONVERGED AFTER   5 CYCLES          *
               *****************************************************

Total Energy       :           -9.12881134 Eh            -248.40759 eV
  Last Energy change         ...   -4.8025e-10  Tolerance :   1.0000e-08
  Last MAX-Density change    ...    2.0739e-05  Tolerance :   1.0000e-07
             **** THE GBW FILE WAS UPDATED (calc.gbw) ****
             **** DENSITY calc.scfp WAS UPDATED ****
             **** ENERGY FILE WAS UPDATED (calc.en.tmp) ****
             **** THE GBW FILE WAS UPDATED (calc.gbw) ****
             **** DENSITY calc.scfp WAS UPDATED ****
Total SCF time: 0 days 0 hours 0 min 0 sec 

Maximum memory used throughout the entire SCF-calculation: 222.8 MB

-------------------------   --------------------
FINAL SINGLE POINT ENERGY        -9.128811337886
-------------------------   --------------------

------------------------------------------------------------------------------
                          SCF GRADIENT FOR NDO METHODS
------------------------------------------------------------------------------

The cartesian gradient:
   1   N   :    0.000002936    0.000028555    0.000015823
   2   H   :   -0.000571283   -0.000249280    0.000012560
   3   H   :    0.000328338    0.000090715   -0.000512926
   4   H   :    0.000240009    0.000130010    0.000484542

Norm of the cartesian gradient     ...    0.001038341
RMS gradient                       ...    0.000299743
MAX gradient                       ...    0.000571283
------------------------------------------------------------------------------
                         ORCA GEOMETRY RELAXATION STEP
------------------------------------------------------------------------------

Reading the OPT-File                    .... done
Getting information on internals        .... done
Copying old internal coords+grads       .... done
Making the new internal coordinates     .... (new redundants).... done
Validating the new internal coordinates .... (new redundants).... done
Calculating the B-matrix                .... done
Calculating the G,G- and P matrices     .... done
Transforming gradient to internals      .... done
Projecting the internal gradient        .... done
Number of atoms                         ....   4
Number of internal coordinates          ....   7
Current Energy                          ....    -9.128811338 Eh
Current gradient norm                   ....     0.001038341 Eh/bohr
Maximum allowed component of the step   ....  0.300
Current trust radius                    ....  0.300
Updating the Hessian (Bofill)          .... Diagonalizing the Hessian               .... done
Dimension of the hessian                ....   7
Lowest eigenvalues of the Hessian:
 -0.019050183  0.118476895  0.118742195  0.427800849  0.428833626
Hessian has   1 negative eigenvalues
Taking P-RFO step
Searching for lambda that maximizes along the lowest mode
TS mode is mode number   0 with eigenvalue  -0.01905018 and components:
   1.    0.00002217
   2.    0.00008720
   3.   -0.00031493
   4.    0.00043265
   5.   -0.00001973
   6.   -0.00042897
   7.    0.99999976

Lambda that maximizes along the TS mode:       0.00000001
Searching for lambda that minimizes along all other modes
In cycle   1: lambdaN =  -0.00000219   step =   0.00000219
In cycle   2: lambdaN =  -0.00000219   step =   0.00000000
Lambda that minimizes along all other modes:  -0.00000219
The final length of the internal step   ....       0.0022
Converting the step to cartesian space:
 Initial RMS(Int)=    0.0008502699
Transforming coordinates:
 Iter   0:  RMS(Cart)=    0.0006229586 RMS(Int)=    0.0008502327
 Iter   1:  RMS(Cart)=    0.0000001000 RMS(Int)=    0.0000002218
 Iter   2:  RMS(Cart)=    0.0000000001 RMS(Int)=    0.0000000002
done
Storing new coordinates                 .... done

                                .--------------------.
          ----------------------|Geometry convergence|-------------------------
          Item                value                   Tolerance       Converged
          ---------------------------------------------------------------------
          Energy change      -0.0006946955            0.0000050000      NO
          RMS gradient        0.0003922856            0.0001000000      NO
          MAX gradient        0.0006230113            0.0003000000      NO
          RMS step            0.0008502699            0.0020000000      YES
          MAX step            0.0012632947            0.0040000000      YES
          ........................................................
          Max(Bonds)      0.0007      Max(Angles)    0.01
          Max(Dihed)        0.00      Max(Improp)    0.04
          ---------------------------------------------------------------------

The optimization has not yet converged - more geometry cycles are needed


    ---------------------------------------------------------------------------
                         Redundant Internal Coordinates
                            (Angstroem and degrees)

        Definition                    Value    dE/dq     Step     New-Value  comp.(TS mode)
    ----------------------------------------------------------------------------
     1. B(H   1,N   0)                0.9760 -0.000623  0.0007    0.9766   
     2. B(H   2,N   0)                0.9760 -0.000615  0.0007    0.9766   
     3. B(H   3,N   0)                0.9760 -0.000556  0.0006    0.9766   
     4. A(H   1,N   0,H   3)          120.00  0.000013   -0.01    120.00   
     5. A(H   2,N   0,H   3)          120.01  0.000016   -0.01    120.00   
     6. A(H   1,N   0,H   2)          119.98 -0.000029    0.01    120.00   
     7. I(H   1,H   3,H   2,N   0)      0.04 -0.000014   -0.04     -0.00          1.00
    ----------------------------------------------------------------------------

         *************************************************************
         *                GEOMETRY OPTIMIZATION CYCLE   3            *
         *************************************************************
---------------------------------
CARTESIAN COORDINATES (ANGSTROEM)
---------------------------------
  N      1.087587   -0.339954   -0.009713
  H      1.983462    0.048600    0.006226
  H      0.602565   -0.483228    0.825770
  H      0.676816   -0.585238   -0.861123

----------------------------
CARTESIAN COORDINATES (A.U.)
----------------------------
  NO LB      ZA    FRAG     MASS         X           Y           Z
   0 N     5.0000    0    14.007    2.055242   -0.642420   -0.018355
   1 H     1.0000    0     1.008    3.748200    0.091841    0.011765
   2 H     1.0000    0     1.008    1.138683   -0.913168    1.560479
   3 H     1.0000    0     1.008    1.278997   -1.105940   -1.627286

--------------------------------
INTERNAL COORDINATES (ANGSTROEM)
--------------------------------
 N      0   0   0     0.000000000000     0.00000000     0.00000000
 H      1   0   0     0.976637154282     0.00000000     0.00000000
 H      1   2   0     0.976629171834   119.99759546     0.00000000
 H      1   2   3     0.976624661409   119.99807604   180.00248143

---------------------------
INTERNAL COORDINATES (A.U.)
---------------------------
 N      0   0   0     0.000000000000     0.00000000     0.00000000
 H      1   0   0     1.845576753805     0.00000000     0.00000000
 H      1   2   0     1.845561669164   119.99759546     0.00000000
 H      1   2   3     1.845553145697   119.99807604   180.00248143

------------------------------------------------------------------------------
                           ORCA NDO INTEGRAL CALCULATION
------------------------------------------------------------------------------

--------------
NDO PARAMETERS
--------------

Gamma integral treatment              ... MOPAC
Nuclear repulsuion treatment          ... AM1-style
Interaction factors:
s-s (sigma) =    1.0000
s-p (sigma) =    1.0000
s-d (sigma) =    1.0000
p-p (sigma) =    1.0000  p-p(pi) =    1.0000
p-d (sigma) =    1.0000  p-d(pi) =    1.0000
d-d (sigma) =    1.0000  d-d(pi) =    1.0000 d-d (delta) =    1.0000

--------------------------
Parameters for Element H :
--------------------------
 One-electron parameters (in eV)
  U(s)  =   -11.396427 Beta(s) =     6.173787 Neff(s) =     1.000000
 One-center electron repulsion parameters (in eV)
  G(s,s)=    12.848000
--------------------------
Parameters for Element N :
--------------------------
 One-electron parameters (in eV)
  U(s)  =   -71.860000 Beta(s) =    20.299110 Neff(s) =     2.000000
  U(p)  =   -57.167581 Beta(p) =    18.238666 Neff(p) =     3.000000 
 One-center electron repulsion parameters (in eV)
  G(s,s)=    13.590000
  G(s,p)=    12.660000 G(p,p)  =    12.053330
 Slater-Condon parameters (in eV)
 F2(p,p)=     5.7917 G1(s,p)=    9.4200

 Number of atoms                    ....    4
 Number of basis functions          ....    7

 Overlap integrals                  .... done
 One electron matrix                .... done
 Nuclear repulsion                  .... done
 Integral list                      .... done
 Electron-electron repulsion        .... done

Diagonalization of the overlap matrix:
Smallest eigenvalue                        ... 3.870e-01
Time for diagonalization                   ...    0.000 sec
Threshold for overlap eigenvalues          ... 1.000e-08
Number of eigenvalues below threshold      ... 0
Time for construction of square roots      ...    0.000 sec
Total time needed                          ...    0.000 sec


 InCore treatment chosen:
   Memory dedicated               ...    1024 MB
   Memory needed                  ...      0 MB
   Number of tiny    integrals    ...       0
   Number of small   integrals    ...       0
   Number of regular integrals    ...      52

--------------
SCF ITERATIONS
--------------
ITER       Energy         Delta-E        Max-DP      RMS-DP      [F,P]     Damp
                      *** Initiating the SOSCF procedure ***
                      *** Re-Reading the Fockian *** 
                      *** Removing any level shift *** 
ITER      Energy       Delta-E        Grad      Rot      Max-DP    RMS-DP
  0     -9.12881219  -9.1288121911  0.000234  0.000234  0.000267  0.000055
  1     -9.12881231  -0.0000001192  0.000083  0.000098  0.000112  0.000034
  2     -9.12881234  -0.0000000286  0.000027  0.000095  0.000095  0.000027
                 **** Energy Check signals convergence ****
              ***Rediagonalizing the Fockian in SOSCF/NRSCF***

               *****************************************************
               *                     SUCCESS                       *
               *           SCF CONVERGED AFTER   3 CYCLES          *
               *****************************************************

Total Energy       :           -9.12881235 Eh            -248.40761 eV
  Last Energy change         ...   -7.0223e-09  Tolerance :   1.0000e-08
  Last MAX-Density change    ...    1.9902e-05  Tolerance :   1.0000e-07
             **** THE GBW FILE WAS UPDATED (calc.gbw) ****
             **** DENSITY calc.scfp WAS UPDATED ****
             **** ENERGY FILE WAS UPDATED (calc.en.tmp) ****
             **** THE GBW FILE WAS UPDATED (calc.gbw) ****
             **** DENSITY calc.scfp WAS UPDATED ****
Total SCF time: 0 days 0 hours 0 min 0 sec 

Maximum memory used throughout the entire SCF-calculation: 222.8 MB

-------------------------   --------------------
FINAL SINGLE POINT ENERGY        -9.128812345956
-------------------------   --------------------

------------------------------------------------------------------------------
                          SCF GRADIENT FOR NDO METHODS
------------------------------------------------------------------------------

The cartesian gradient:
   1   N   :   -0.000002586   -0.000003803   -0.000005336
   2   H   :    0.000019504    0.000014646    0.000001266
   3   H   :   -0.000010019   -0.000003718    0.000020513
   4   H   :   -0.000006898   -0.000007124   -0.000016443

Norm of the cartesian gradient     ...    0.000039368
RMS gradient                       ...    0.000011364
MAX gradient                       ...    0.000020513
------------------------------------------------------------------------------
                         ORCA GEOMETRY RELAXATION STEP
------------------------------------------------------------------------------

Reading the OPT-File                    .... done
Getting information on internals        .... done
Copying old internal coords+grads       .... done
Making the new internal coordinates     .... (new redundants).... done
Validating the new internal coordinates .... (new redundants).... done
Calculating the B-matrix                .... done
Calculating the G,G- and P matrices     .... done
Transforming gradient to internals      .... done
Projecting the internal gradient        .... done
Number of atoms                         ....   4
Number of internal coordinates          ....   7
Current Energy                          ....    -9.128812346 Eh
Current gradient norm                   ....     0.000039368 Eh/bohr
Maximum allowed component of the step   ....  0.300
Current trust radius                    ....  0.300

(DQ * DQ)^2 = 0.00000000002169     Bofill update is skipped
Updating the Hessian (Bofill)          .... 
(DQ * DQ)^2 = 0.00000000002561     Bofill update is skipped
Diagonalizing the Hessian               .... done
Dimension of the hessian                ....   7
Lowest eigenvalues of the Hessian:
 -0.019050183  0.118476895  0.118742195  0.427800849  0.428833626
Hessian has   1 negative eigenvalues
Taking P-RFO step
Searching for lambda that maximizes along the lowest mode
TS mode is mode number   0 with eigenvalue  -0.01905018 and components:
   1.    0.00002217
   2.    0.00008720
   3.   -0.00031493
   4.    0.00043265
   5.   -0.00001973
   6.   -0.00042897
   7.    0.99999976

Lambda that maximizes along the TS mode:       0.00000000
Searching for lambda that minimizes along all other modes
In cycle   1: lambdaN =  -0.00000000   step =   0.00000000
Lambda that minimizes along all other modes:  -0.00000000
The final length of the internal step   ....       0.0001
Converting the step to cartesian space:
 Initial RMS(Int)=    0.0000393710
Transforming coordinates:
 Iter   0:  RMS(Cart)=    0.0000247917 RMS(Int)=    0.0000393711
 Iter   1:  RMS(Cart)=    0.0000000003 RMS(Int)=    0.0000000006
done
Storing new coordinates                 .... done

                                .--------------------.
          ----------------------|Geometry convergence|-------------------------
          Item                value                   Tolerance       Converged
          ---------------------------------------------------------------------
          Energy change      -0.0000010081            0.0000050000      YES
          RMS gradient        0.0000144587            0.0001000000      YES
          MAX gradient        0.0000237382            0.0003000000      YES
          RMS step            0.0000393710            0.0020000000      YES
          MAX step            0.0000667406            0.0040000000      YES
          ........................................................
          Max(Bonds)      0.0000      Max(Angles)    0.00
          Max(Dihed)        0.00      Max(Improp)    0.00
          ---------------------------------------------------------------------

                    ***********************HURRAY********************
                    ***        THE OPTIMIZATION HAS CONVERGED     ***
                    *************************************************


    ---------------------------------------------------------------------------
                         Redundant Internal Coordinates

                          --- Optimized Parameters ---  
                            (Angstroem and degrees)

        Definition                    OldVal   dE/dq     Step     FinalVal  comp.(TS mode)
    ----------------------------------------------------------------------------
     1. B(H   1,N   0)                0.9766  0.000024 -0.0000    0.9766   
     2. B(H   2,N   0)                0.9766  0.000023 -0.0000    0.9766   
     3. B(H   3,N   0)                0.9766  0.000019 -0.0000    0.9766   
     4. A(H   1,N   0,H   3)          120.00  0.000001   -0.00    120.00   
     5. A(H   2,N   0,H   3)          120.00  0.000001   -0.00    120.00   
     6. A(H   1,N   0,H   2)          120.00 -0.000002    0.00    120.00   
     7. I(H   1,H   3,H   2,N   0)     -0.00  0.000001    0.00      0.00          1.00
    ----------------------------------------------------------------------------
                 *******************************************************
                 *** FINAL ENERGY EVALUATION AT THE STATIONARY POINT ***
                 ***               (AFTER    3 CYCLES)               ***
                 *******************************************************
---------------------------------
CARTESIAN COORDINATES (ANGSTROEM)
---------------------------------
  N      1.087596   -0.339968   -0.009708
  H      1.983438    0.048595    0.006222
  H      0.602572   -0.483221    0.825748
  H      0.676824   -0.585227   -0.861102

----------------------------
CARTESIAN COORDINATES (A.U.)
----------------------------
  NO LB      ZA    FRAG     MASS         X           Y           Z
   0 N     5.0000    0    14.007    2.055258   -0.642446   -0.018345
   1 H     1.0000    0     1.008    3.748155    0.091832    0.011758
   2 H     1.0000    0     1.008    1.138696   -0.913155    1.560437
   3 H     1.0000    0     1.008    1.279012   -1.105919   -1.627247

--------------------------------
INTERNAL COORDINATES (ANGSTROEM)
--------------------------------
 N      0   0   0     0.000000000000     0.00000000     0.00000000
 H      1   0   0     0.976611072871     0.00000000     0.00000000
 H      1   2   0     0.976603978458   119.99847653     0.00000000
 H      1   2   3     0.976605260388   119.99768725   179.99806627

---------------------------
INTERNAL COORDINATES (A.U.)
---------------------------
 N      0   0   0     0.000000000000     0.00000000     0.00000000
 H      1   0   0     1.845527467081     0.00000000     0.00000000
 H      1   2   0     1.845514060584   119.99847653     0.00000000
 H      1   2   3     1.845516483080   119.99768725   179.99806627

----------------------------
SLATER BASIS SET DIM=   7
----------------------------
  0 N     2 shells
 l=0 nsto= 1
    2       2.315410000000        1.000000000000
 l=1 nsto= 1
    2       2.157940000000        1.000000000000
  1 H     1 shells
 l=0 nsto= 1
    1       1.188078000000        1.000000000000
  2 H     1 shells
 l=0 nsto= 1
    1       1.188078000000        1.000000000000
  3 H     1 shells
 l=0 nsto= 1
    1       1.188078000000        1.000000000000
------------------------------------------------------------------------------
                           ORCA NDO INTEGRAL CALCULATION
------------------------------------------------------------------------------

--------------
NDO PARAMETERS
--------------

Gamma integral treatment              ... MOPAC
Nuclear repulsuion treatment          ... AM1-style
Interaction factors:
s-s (sigma) =    1.0000
s-p (sigma) =    1.0000
s-d (sigma) =    1.0000
p-p (sigma) =    1.0000  p-p(pi) =    1.0000
p-d (sigma) =    1.0000  p-d(pi) =    1.0000
d-d (sigma) =    1.0000  d-d(pi) =    1.0000 d-d (delta) =    1.0000

--------------------------
Parameters for Element H :
--------------------------
 One-electron parameters (in eV)
  U(s)  =   -11.396427 Beta(s) =     6.173787 Neff(s) =     1.000000
 One-center electron repulsion parameters (in eV)
  G(s,s)=    12.848000
--------------------------
Parameters for Element N :
--------------------------
 One-electron parameters (in eV)
  U(s)  =   -71.860000 Beta(s) =    20.299110 Neff(s) =     2.000000
  U(p)  =   -57.167581 Beta(p) =    18.238666 Neff(p) =     3.000000 
 One-center electron repulsion parameters (in eV)
  G(s,s)=    13.590000
  G(s,p)=    12.660000 G(p,p)  =    12.053330
 Slater-Condon parameters (in eV)
 F2(p,p)=     5.7917 G1(s,p)=    9.4200

 Number of atoms                    ....    4
 Number of basis functions          ....    7

 Overlap integrals                  .... done
 One electron matrix                .... done
 Nuclear repulsion                  .... done
 Integral list                      .... done
 Electron-electron repulsion        .... done
-------------------------------------------------------------------------------
                                 ORCA SCF
-------------------------------------------------------------------------------

------------
SCF SETTINGS
------------
Hamiltonian:
 ZDO-Hamiltonian        Method          .... NDDO


General Settings:
 Integral files         IntName         .... calc
 Hartree-Fock type      HFTyp           .... RHF
 Total Charge           Charge          ....    0
 Multiplicity           Mult            ....    1
 Number of Electrons    NEL             ....    8
 Basis Dimension        Dim             ....    7
 Nuclear Repulsion      ENuc            ....      6.9008244429 Eh

Convergence Acceleration:
 DIIS                   CNVDIIS         .... on
   Start iteration      DIISMaxIt       ....    12
   Startup error        DIISStart       ....  0.200000
   # of expansion vecs  DIISMaxEq       ....     5
   Bias factor          DIISBfac        ....   1.050
   Max. coefficient     DIISMaxC        ....  10.000
 Trust-Rad. Augm. Hess. CNVTRAH         .... off
 SOSCF                  CNVSOSCF        .... on
   Start iteration      SOSCFMaxIt      ....   150
   Startup grad/error   SOSCFStart      ....  0.003300
 Level Shifting         CNVShift        .... on
   Level shift para.    LevelShift      ....    0.2500
   Turn off err/grad.   ShiftErr        ....    0.0010
 Zerner damping         CNVZerner       .... off
 Static damping         CNVDamp         .... on
   Fraction old density DampFac         ....    0.7000
   Max. Damping (<1)    DampMax         ....    0.9800
   Min. Damping (>=0)   DampMin         ....    0.0000
   Turn off err/grad.   DampErr         ....    0.1000
 Fernandez-Rico         CNVRico         .... off

SCF Procedure:
 Maximum # iterations   MaxIter         ....   125
 SCF integral mode      SCFMode         .... Conventional
 Integral Buffer length BufferLength    .... 1048576
 Integral index format  IndFormat       ....     0
 Integral value format  ValFormat       ....     0
 Integral Storage       Thresh          ....  2.500e-11 Eh

Convergence Tolerance:
 Convergence Check Mode ConvCheckMode   .... Total+1el-Energy
 Convergence forced     ConvForced      .... 0
 Energy Change          TolE            ....  1.000e-08 Eh
 1-El. energy change                    ....  1.000e-05 Eh
 Orbital Gradient       TolG            ....  1.000e-05
 Orbital Rotation angle TolX            ....  1.000e-05
 DIIS Error             TolErr          ....  5.000e-07


Diagonalization of the overlap matrix:
Smallest eigenvalue                        ... 3.869e-01
Time for diagonalization                   ...    0.000 sec
Threshold for overlap eigenvalues          ... 1.000e-08
Number of eigenvalues below threshold      ... 0
Time for construction of square roots      ...    0.000 sec
Total time needed                          ...    0.000 sec

---------------------
INITIAL GUESS: MOREAD
---------------------
Guess MOs are being read from file: calc.gbw
Input Geometry matches current geometry (good)
Input basis set matches current basis set (good)
                      ------------------
                      INITIAL GUESS DONE (   0.0 sec)
                      ------------------

 InCore treatment chosen:
   Memory dedicated               ...    1024 MB
   Memory needed                  ...      0 MB
   Number of tiny    integrals    ...       0
   Number of small   integrals    ...       0
   Number of regular integrals    ...      52

--------------
SCF ITERATIONS
--------------
ITER       Energy         Delta-E        Max-DP      RMS-DP      [F,P]     Damp
                      *** Initiating the SOSCF procedure ***
                      *** Re-Reading the Fockian *** 
                      *** Removing any level shift *** 
ITER      Energy       Delta-E        Grad      Rot      Max-DP    RMS-DP
  0     -9.12881235  -9.1288123490  0.000013  0.000013  0.000015  0.000003
                 **** Energy Check signals convergence ****
              ***Rediagonalizing the Fockian in SOSCF/NRSCF***

               *****************************************************
               *                     SUCCESS                       *
               *           SCF CONVERGED AFTER   1 CYCLES          *
               *****************************************************


----------------
TOTAL SCF ENERGY
----------------

Total Energy       :           -9.12881235 Eh            -248.40761 eV

Components:
Nuclear Repulsion  :            6.90082444 Eh             187.78098 eV
Electronic Energy  :          -16.02963679 Eh            -436.18859 eV
One Electron Energy:          -26.61105849 Eh            -724.12372 eV
Two Electron Energy:           10.58142170 Eh             287.93512 eV


---------------
SCF CONVERGENCE
---------------

  Last Energy change         ...   -4.1911e-10  Tolerance :   1.0000e-08
  Last MAX-Density change    ...    6.6032e-06  Tolerance :   1.0000e-07
  Last RMS-Density change    ...    2.1596e-06  Tolerance :   5.0000e-09
  Last Orbital Gradient      ...    4.6918e-06  Tolerance :   1.0000e-05
  Last Orbital Rotation      ...    6.7619e-06  Tolerance :   1.0000e-05

             **** THE GBW FILE WAS UPDATED (calc.gbw) ****
             **** DENSITY calc.scfp WAS UPDATED ****
             **** ENERGY FILE WAS UPDATED (calc.en.tmp) ****
             **** THE GBW FILE WAS UPDATED (calc.gbw) ****
             **** DENSITY calc.scfp WAS UPDATED ****
----------------
ORBITAL ENERGIES
----------------

  NO   OCC          E(Eh)            E(eV) 
   0   2.0000      -1.184871       -32.2420 
   1   2.0000      -0.593850       -16.1595 
   2   2.0000      -0.593837       -16.1591 
   3   2.0000      -0.351548        -9.5661 
   4   0.0000       0.152816         4.1583 
   5   0.0000       0.265388         7.2216 
   6   0.0000       0.265397         7.2218 

                    ********************************
                    * MULLIKEN POPULATION ANALYSIS *
                    ********************************

-----------------------
MULLIKEN ATOMIC CHARGES
-----------------------
   0 N :   -0.762511
   1 H :    0.254159
   2 H :    0.254176
   3 H :    0.254175
Sum of atomic charges:   -0.0000000

--------------------------------
MULLIKEN REDUCED ORBITAL CHARGES
--------------------------------
  0 N s       :     1.655202  s :     1.655202
      pz      :     1.058664  p :     4.107308
      px      :     1.201885
      py      :     1.846759
  1 H s       :     0.745841  s :     0.745841
  2 H s       :     0.745824  s :     0.745824
  3 H s       :     0.745825  s :     0.745825


                     *******************************
                     * LOEWDIN POPULATION ANALYSIS *
                     *******************************

----------------------
LOEWDIN ATOMIC CHARGES
----------------------
   0 N :   -0.588495
   1 H :    0.196156
   2 H :    0.196170
   3 H :    0.196169

-------------------------------
LOEWDIN REDUCED ORBITAL CHARGES
-------------------------------
  0 N s       :     1.426212  s :     1.426212
      pz      :     1.086005  p :     4.162283
      px      :     1.225067
      py      :     1.851210
  1 H s       :     0.803844  s :     0.803844
  2 H s       :     0.803830  s :     0.803830
  3 H s       :     0.803831  s :     0.803831


                      *****************************
                      * MAYER POPULATION ANALYSIS *
                      *****************************

  NA   - Mulliken gross atomic population
  ZA   - Total nuclear charge
  QA   - Mulliken gross atomic charge
  VA   - Mayer's total valence
  BVA  - Mayer's bonded valence
  FA   - Mayer's free valence

  ATOM       NA         ZA         QA         VA         BVA        FA
  0 N      7.2877     5.0000    -2.2877     1.0304     7.1136    -6.0831
  1 H      1.3207     1.0000    -0.3207     0.8971     2.3963    -1.4991
  2 H      1.3207     1.0000    -0.3207     0.8972     2.3963    -1.4991
  3 H      1.3207     1.0000    -0.3207     0.8972     2.3963    -1.4991

  Mayer bond orders larger than 0.100000
B(  0-N ,  1-H ) :   2.3712 B(  0-N ,  2-H ) :   2.3712 B(  0-N ,  3-H ) :   2.3712 


-------
TIMINGS
-------

Total SCF time: 0 days 0 hours 0 min 0 sec 

Total time                  ....       0.120 sec
Sum of individual times     ....       0.002 sec  (  2.1%)

Fock matrix formation       ....       0.001 sec  (  1.1%)
Diagonalization             ....       0.000 sec  (  0.0%)
Density matrix formation    ....       0.000 sec  (  0.0%)
Population analysis         ....       0.001 sec  (  0.5%)
Initial guess               ....       0.000 sec  (  0.3%)
Orbital Transformation      ....       0.000 sec  (  0.0%)
Orbital Orthonormalization  ....       0.000 sec  (  0.0%)
DIIS solution               ....       0.000 sec  (  0.0%)
SOSCF solution              ....       0.000 sec  (  0.1%)

Maximum memory used throughout the entire SCF-calculation: 222.8 MB

-------------------------   --------------------
FINAL SINGLE POINT ENERGY        -9.128812349444
-------------------------   --------------------

                                *** OPTIMIZATION RUN DONE ***

                            ***************************************
                            *     ORCA property calculations      *
                            ***************************************

                                    ---------------------
                                    Active property flags
                                    ---------------------
   (+) Dipole Moment


------------------------------------------------------------------------------
                       ORCA ELECTRIC PROPERTIES CALCULATION
------------------------------------------------------------------------------

Dipole Moment Calculation                       ... on
Quadrupole Moment Calculation                   ... off
Polarizability Calculation                      ... off
GBWName                                         ... calc.gbw
Electron density                                ... calc.scfp
The origin for moment calculation is the CENTER OF MASS  = ( 2.055263, -0.642440 -0.018346)

-------------
DIPOLE MOMENT
-------------
                                X             Y             Z
Electronic contribution:     -0.00007      -0.00007       0.00001
Nuclear contribution   :      0.00005       0.00005      -0.00001
                        -----------------------------------------
Total Dipole Moment    :     -0.00003      -0.00002       0.00000
                        -----------------------------------------
Magnitude (a.u.)       :      0.00003
Magnitude (Debye)      :      0.00008



--------------------
Rotational spectrum 
--------------------
 
Rotational constants in cm-1:    11.690164    11.689359     5.844881 
Rotational constants in MHz : 350462.309746 350438.154014 175225.115759 

 Dipole components along the rotational axes: 
x,y,z [a.u.] :     0.000003    -0.000029     0.000004 
x,y,z [Debye]:     0.000008    -0.000074     0.000011 

 

Timings for individual modules:

Sum of individual times         ...       23.047 sec (=   0.384 min)
STO integral calculation        ...        0.076 sec (=   0.001 min)   0.3 %
SCF iterations                  ...        0.848 sec (=   0.014 min)   3.7 %
SCF Gradient evaluation         ...        0.057 sec (=   0.001 min)   0.2 %
Geometry relaxation             ...        0.058 sec (=   0.001 min)   0.3 %
Numerical frequency calculation ...       22.007 sec (=   0.367 min)  95.5 %
                             ****ORCA TERMINATED NORMALLY****
TOTAL RUN TIME: 0 days 0 hours 0 minutes 23 seconds 12 msec
