5
 energy: -4.174846019213 gnorm: 0.017368041996 xtb: 6.5.1 (579679a)
C            4.29180000000000        3.65880000000000        0.00000000000000
H            4.64850000000000        2.65000000000000        0.00000000000000
H            4.64850000000000        4.16320000000000        0.87070000000000
H            4.64850000000000        4.16320000000000       -0.87970000000000
H            3.22180000000000        3.65880000000000        0.00000000000000
5
 energy: -4.175179921112 gnorm: 0.003675851089 xtb: 6.5.1 (579679a)
C            4.29208470613183        3.65920084162863       -0.00180096437803
H            4.65235679413906        2.64083049773703       -0.00170779054770
H            4.65316795165569        4.16980259139626        0.87813810023883
H            4.64962005055960        4.16478550892325       -0.88192143682801
H            3.21187049751382        3.65938056031482       -0.00170790848510
5
 energy: -4.175191497057 gnorm: 0.000546158985 xtb: 6.5.1 (579679a)
C            4.29241136416486        3.65964047123161       -0.00305376576662
H            4.65273569256155        2.63913044720061       -0.00142066465554
H            4.65369365674407        4.17056503078757        0.87976843864821
H            4.65009703159581        4.16547998449498       -0.88287259518668
H            3.21016225493371        3.65918406628523       -0.00142141303937
5
 energy: -4.175191667508 gnorm: 0.000169196982 xtb: 6.5.1 (579679a)
C            4.29252767824164        3.65980058901587       -0.00355359601060
H            4.65262684239591        2.63903510051738       -0.00110556125317
H            4.65356182618318        4.17038028972647        0.87997990029793
H            4.65027634233172        4.16573373945612       -0.88321531371370
H            3.21010731084754        3.65905028128416       -0.00110542932046
