5
 energy: -4.175191667509 gnorm: 0.000169409164 xtb: 6.5.1 (579679a)
C            4.29252767824164        3.65980058901587       -0.00355359601060
H            4.65262684239591        2.63903510051738       -0.00110556125317
H            4.65356182618318        4.17038028972647        0.87997990029793
H            4.65027634233172        4.16573373945612       -0.88321531371370
H            3.21010731084754        3.65905028128416       -0.00110542932046
