 Entering Gaussian System, Link 0=g16
 Input=calc.com
 Output=calc.log
 Initial command:
 /binaries/g16/l1.exe "/calcus/scratch/scr/27/Gau-158.inp" -scrdir="/calcus/scratch/scr/27/"
 Entering Link 1 = /binaries/g16/l1.exe PID=       160.
  
 Copyright (c) 1988-2019, Gaussian, Inc.  All Rights Reserved.
  
 This is part of the Gaussian(R) 16 program.  It is based on
 the Gaussian(R) 09 system (copyright 2009, Gaussian, Inc.),
 the Gaussian(R) 03 system (copyright 2003, Gaussian, Inc.),
 the Gaussian(R) 98 system (copyright 1998, Gaussian, Inc.),
 the Gaussian(R) 94 system (copyright 1995, Gaussian, Inc.),
 the Gaussian 92(TM) system (copyright 1992, Gaussian, Inc.),
 the Gaussian 90(TM) system (copyright 1990, Gaussian, Inc.),
 the Gaussian 88(TM) system (copyright 1988, Gaussian, Inc.),
 the Gaussian 86(TM) system (copyright 1986, Carnegie Mellon
 University), and the Gaussian 82(TM) system (copyright 1983,
 Carnegie Mellon University). Gaussian is a federally registered
 trademark of Gaussian, Inc.
  
 This software contains proprietary and confidential information,
 including trade secrets, belonging to Gaussian, Inc.
  
 This software is provided under written license and may be
 used, copied, transmitted, or stored only in accord with that
 written license.
  
 The following legend is applicable only to US Government
 contracts under FAR:
  
                    RESTRICTED RIGHTS LEGEND
  
 Use, reproduction and disclosure by the US Government is
 subject to restrictions as set forth in subparagraphs (a)
 and (c) of the Commercial Computer Software - Restricted
 Rights clause in FAR 52.227-19.
  
 Gaussian, Inc.
 340 Quinnipiac St., Bldg. 40, Wallingford CT 06492
  
  
 ---------------------------------------------------------------
 Warning -- This program may not be used in any manner that
 competes with the business of Gaussian, Inc. or will provide
 assistance to any competitor of Gaussian, Inc.  The licensee
 of this program is prohibited from giving any competitor of
 Gaussian, Inc. access to this program.  By using this program,
 the user acknowledges that Gaussian, Inc. is engaged in the
 business of creating and licensing software in the field of
 computational chemistry and represents and warrants to the
 licensee that it is not a competitor of Gaussian, Inc. and that
 it will not use this program in any manner prohibited above.
 ---------------------------------------------------------------
  

 Cite this work as:
 Gaussian 16, Revision C.01,
 M. J. Frisch, G. W. Trucks, H. B. Schlegel, G. E. Scuseria, 
 M. A. Robb, J. R. Cheeseman, G. Scalmani, V. Barone, 
 G. A. Petersson, H. Nakatsuji, X. Li, M. Caricato, A. V. Marenich, 
 J. Bloino, B. G. Janesko, R. Gomperts, B. Mennucci, H. P. Hratchian, 
 J. V. Ortiz, A. F. Izmaylov, J. L. Sonnenberg, D. Williams-Young, 
 F. Ding, F. Lipparini, F. Egidi, J. Goings, B. Peng, A. Petrone, 
 T. Henderson, D. Ranasinghe, V. G. Zakrzewski, J. Gao, N. Rega, 
 G. Zheng, W. Liang, M. Hada, M. Ehara, K. Toyota, R. Fukuda, 
 J. Hasegawa, M. Ishida, T. Nakajima, Y. Honda, O. Kitao, H. Nakai, 
 T. Vreven, K. Throssell, J. A. Montgomery, Jr., J. E. Peralta, 
 F. Ogliaro, M. J. Bearpark, J. J. Heyd, E. N. Brothers, K. N. Kudin, 
 V. N. Staroverov, T. A. Keith, R. Kobayashi, J. Normand, 
 K. Raghavachari, A. P. Rendell, J. C. Burant, S. S. Iyengar, 
 J. Tomasi, M. Cossi, J. M. Millam, M. Klene, C. Adamo, R. Cammi, 
 J. W. Ochterski, R. L. Martin, K. Morokuma, O. Farkas, 
 J. B. Foresman, and D. J. Fox, Gaussian, Inc., Wallingford CT, 2019.
 
 ******************************************
 Gaussian 16:  ES64L-G16RevC.01  3-Jul-2019
                 5-Sep-2022 
 ******************************************
 %chk=in.chk
 %nproc=1
 Will use up to    1 processors via shared memory.
 %mem=2000MB
 -----------------
 #p opt HF/Def2SVP
 -----------------
 1/18=20,19=15,38=1/1,3;
 2/9=110,12=2,17=6,18=5,40=1/2;
 3/5=43,7=101,11=9,25=1,30=1,71=1/1,2,3;
 4//1;
 5/5=2,38=5/2;
 6/7=2,8=2,9=2,10=2,28=1/1;
 7//1,2,3,16;
 1/18=20,19=15/3(2);
 2/9=110/2;
 99//99;
 2/9=110/2;
 3/5=43,7=101,11=9,25=1,30=1,71=1/1,2,3;
 4/5=5,16=3,69=1/1;
 5/5=2,38=5/2;
 7//1,2,3,16;
 1/18=20,19=15/3(-5);
 2/9=110/2;
 6/7=2,8=2,9=2,10=2,19=2,28=1/1;
 99/9=1/99;
 Leave Link    1 at Mon Sep  5 10:35:19 2022, MaxMem=   262144000 cpu:               0.0 elap:               0.0
 (Enter /binaries/g16/l101.exe)
 -----------------------
 File created by ccinput
 -----------------------
 Symbolic Z-matrix:
 Charge =  0 Multiplicity = 1
 C                     4.2918    3.6588    0. 
 H                     4.6485    2.65      0. 
 H                     4.6485    4.1632    0.8707 
 H                     4.6485    4.1632   -0.8797 
 H                     3.2218    3.6588    0. 
 
 ITRead=  0  0  0  0  0
 MicOpt= -1 -1 -1 -1 -1
 NAtoms=      5 NQM=        5 NQMF=       0 NMMI=      0 NMMIF=      0
                NMic=       0 NMicF=      0.
                    Isotopes and Nuclear Properties:
 (Nuclear quadrupole moments (NQMom) in fm**2, nuclear magnetic moments (NMagM)
  in nuclear magnetons)

  Atom         1           2           3           4           5
 IAtWgt=          12           1           1           1           1
 AtmWgt=  12.0000000   1.0078250   1.0078250   1.0078250   1.0078250
 NucSpn=           0           1           1           1           1
 AtZEff=  -0.0000000  -0.0000000  -0.0000000  -0.0000000  -0.0000000
 NQMom=    0.0000000   0.0000000   0.0000000   0.0000000   0.0000000
 NMagM=    0.0000000   2.7928460   2.7928460   2.7928460   2.7928460
 AtZNuc=   6.0000000   1.0000000   1.0000000   1.0000000   1.0000000
 Leave Link  101 at Mon Sep  5 10:35:19 2022, MaxMem=   262144000 cpu:               0.1 elap:               0.1
 (Enter /binaries/g16/l103.exe)

 GradGradGradGradGradGradGradGradGradGradGradGradGradGradGradGradGradGrad
 Berny optimization.
 Initialization pass.
                           ----------------------------
                           !    Initial Parameters    !
                           ! (Angstroms and Degrees)  !
 --------------------------                            --------------------------
 ! Name  Definition              Value          Derivative Info.                !
 --------------------------------------------------------------------------------
 ! R1    R(1,2)                  1.07           estimate D2E/DX2                !
 ! R2    R(1,3)                  1.0676         estimate D2E/DX2                !
 ! R3    R(1,4)                  1.075          estimate D2E/DX2                !
 ! R4    R(1,5)                  1.07           estimate D2E/DX2                !
 ! A1    A(2,1,3)              109.5151         estimate D2E/DX2                !
 ! A2    A(2,1,4)              109.3762         estimate D2E/DX2                !
 ! A3    A(2,1,5)              109.473          estimate D2E/DX2                !
 ! A4    A(3,1,4)              109.5644         estimate D2E/DX2                !
 ! A5    A(3,1,5)              109.5186         estimate D2E/DX2                !
 ! A6    A(4,1,5)              109.3798         estimate D2E/DX2                !
 ! D1    D(2,1,4,3)           -120.0525         estimate D2E/DX2                !
 ! D2    D(2,1,5,3)            120.0839         estimate D2E/DX2                !
 ! D3    D(2,1,5,4)           -119.829          estimate D2E/DX2                !
 ! D4    D(3,1,5,4)            120.0871         estimate D2E/DX2                !
 --------------------------------------------------------------------------------
 Trust Radius=3.00D-01 FncErr=1.00D-07 GrdErr=1.00D-07 EigMax=2.50D+02 EigMin=1.00D-04
 Number of steps in this run=     24 maximum allowed number of steps=    100.
 GradGradGradGradGradGradGradGradGradGradGradGradGradGradGradGradGradGrad

 Leave Link  103 at Mon Sep  5 10:35:19 2022, MaxMem=   262144000 cpu:               0.0 elap:               0.0
 (Enter /binaries/g16/l202.exe)
                          Input orientation:                          
 ---------------------------------------------------------------------
 Center     Atomic      Atomic             Coordinates (Angstroms)
 Number     Number       Type             X           Y           Z
 ---------------------------------------------------------------------
      1          6           0        4.291800    3.658800    0.000000
      2          1           0        4.648500    2.650000    0.000000
      3          1           0        4.648500    4.163200    0.870700
      4          1           0        4.648500    4.163200   -0.879700
      5          1           0        3.221800    3.658800    0.000000
 ---------------------------------------------------------------------
                    Distance matrix (angstroms):
                    1          2          3          4          5
     1  C    0.000000
     2  H    1.070006   0.000000
     3  H    1.067601   1.745822   0.000000
     4  H    1.074954   1.750327   1.750400   0.000000
     5  H    1.070000   1.747327   1.745855   1.750361   0.000000
 Stoichiometry    CH4
 Framework group  C1[X(CH4)]
 Deg. of freedom     9
 Full point group                 C1      NOp   1
 Largest Abelian subgroup         C1      NOp   1
 Largest concise Abelian subgroup C1      NOp   1
                         Standard orientation:                         
 ---------------------------------------------------------------------
 Center     Atomic      Atomic             Coordinates (Angstroms)
 Number     Number       Type             X           Y           Z
 ---------------------------------------------------------------------
      1          6           0       -0.000767    0.000001    0.000472
      2          1           0       -0.325680   -0.869163   -0.532348
      3          1           0       -0.412253   -0.010991    0.985525
      4          1           0        1.072605    0.002075    0.058743
      5          1           0       -0.330072    0.878070   -0.514750
 ---------------------------------------------------------------------
 Rotational constants (GHZ):         164.4303219         163.9529333         163.7655362
 Leave Link  202 at Mon Sep  5 10:35:19 2022, MaxMem=   262144000 cpu:               0.0 elap:               0.0
 (Enter /binaries/g16/l301.exe)
 Standard basis: def2SVP (5D, 7F)
 Ernie: Thresh=  0.10000D-02 Tol=  0.10000D-05 Strict=F.
 There are    35 symmetry adapted cartesian basis functions of A   symmetry.
 There are    34 symmetry adapted basis functions of A   symmetry.
    34 basis functions,    53 primitive gaussians,    35 cartesian basis functions
     5 alpha electrons        5 beta electrons
       nuclear repulsion energy        13.6784087271 Hartrees.
 IExCor=    0 DFT=F Ex=HF Corr=None ExCW=0 ScaHFX=  1.000000
 ScaDFX=  1.000000  1.000000  1.000000  1.000000 ScalE2=  1.000000  1.000000
 IRadAn=      5 IRanWt=     -1 IRanGd=            0 ICorTp=0 IEmpDi=  4
 NAtoms=    5 NActive=    5 NUniq=    5 SFac= 1.00D+00 NAtFMM=   60 NAOKFM=F Big=F
 Integral buffers will be    131072 words long.
 Raffenetti 1 integral format.
 Two-electron integral symmetry is turned on.
 Leave Link  301 at Mon Sep  5 10:35:19 2022, MaxMem=   262144000 cpu:               0.0 elap:               0.0
 (Enter /binaries/g16/l302.exe)
 NPDir=0 NMtPBC=     1 NCelOv=     1 NCel=       1 NClECP=     1 NCelD=      1
         NCelK=      1 NCelE2=     1 NClLst=     1 CellRange=     0.0.
 One-electron integrals computed using PRISM.
 One-electron integral symmetry used in STVInt
   1 Symmetry operations used in ECPInt.
 ECPInt:  NShTT=     171 NPrTT=     553 LenC2=     172 LenP2D=     543.
 LDataN:  DoStor=T MaxTD1= 4 Len=   56
 NBasis=    34 RedAO= T EigKep=  1.32D-02  NBF=    34
 NBsUse=    34 1.00D-06 EigRej= -1.00D+00 NBFU=    34
 Leave Link  302 at Mon Sep  5 10:35:19 2022, MaxMem=   262144000 cpu:               0.0 elap:               0.0
 (Enter /binaries/g16/l303.exe)
 DipDrv:  MaxL=1.
 Leave Link  303 at Mon Sep  5 10:35:19 2022, MaxMem=   262144000 cpu:               0.0 elap:               0.0
 (Enter /binaries/g16/l401.exe)
 ExpMin= 1.22D-01 ExpMax= 1.24D+03 ExpMxC= 1.86D+02 IAcc=3 IRadAn=         5 AccDes= 0.00D+00
 Harris functional with IExCor=  205 and IRadAn=       5 diagonalized for initial guess.
 HarFok:  IExCor=  205 AccDes= 0.00D+00 IRadAn=         5 IDoV= 1 UseB2=F ITyADJ=14
 ICtDFT=  3500011 ScaDFX=  1.000000  1.000000  1.000000  1.000000
 FoFCou: FMM=F IPFlag=           0 FMFlag=      100000 FMFlg1=           0
         NFxFlg=           0 DoJE=T BraDBF=F KetDBF=T FulRan=T
         wScrn=  0.000000 ICntrl=       500 IOpCl=  0 I1Cent=   200000004 NGrid=           0
         NMat0=    1 NMatS0=      1 NMatT0=    0 NMatD0=    1 NMtDS0=    0 NMtDT0=    0
 Petite list used in FoFCou.
 Harris En= -40.3454315785124    
 JPrj=0 DoOrth=F DoCkMO=F.
 Leave Link  401 at Mon Sep  5 10:35:19 2022, MaxMem=   262144000 cpu:               0.2 elap:               0.2
 (Enter /binaries/g16/l502.exe)
 Keep R1 ints in memory in canonical form, NReq=1009981.
 FoFCou: FMM=F IPFlag=           0 FMFlag=           0 FMFlg1=           0
         NFxFlg=           0 DoJE=F BraDBF=F KetDBF=F FulRan=T
         wScrn=  0.000000 ICntrl=       600 IOpCl=  0 I1Cent=           0 NGrid=           0
         NMat0=    1 NMatS0=    595 NMatT0=    0 NMatD0=    1 NMtDS0=    0 NMtDT0=    0
 Symmetry not used in FoFCou.
 Two-electron integral symmetry not used.
 Closed shell SCF:
 Using DIIS extrapolation, IDIIS=  1040.
 NGot=   262144000 LenX=   261963332 LenY=   261961666
 Requested convergence on RMS density matrix=1.00D-08 within 128 cycles.
 Requested convergence on MAX density matrix=1.00D-06.
 Requested convergence on             energy=1.00D-06.
 No special actions if energy rises.

 Cycle   1  Pass 1  IDiag  1:
 E= -40.0438133162222    
 DIIS: error= 5.91D-02 at cycle   1 NSaved=   1.
 NSaved= 1 IEnMin= 1 EnMin= -40.0438133162222     IErMin= 1 ErrMin= 5.91D-02
 ErrMax= 5.91D-02  0.00D+00 EMaxC= 1.00D-01 BMatC= 1.24D-01 BMatP= 1.24D-01
 IDIUse=3 WtCom= 4.09D-01 WtEn= 5.91D-01
 Coeff-Com:  0.100D+01
 Coeff-En:   0.100D+01
 Coeff:      0.100D+01
 Gap=     0.654 Goal=   None    Shift=    0.000
 GapD=    0.654 DampG=2.000 DampE=0.500 DampFc=1.0000 IDamp=-1.
 RMSDP=1.10D-02 MaxDP=1.47D-01              OVMax= 1.45D-01

 Cycle   2  Pass 1  IDiag  1:
 E= -40.1503990553715     Delta-E=       -0.106585739149 Rises=F Damp=F
 DIIS: error= 2.27D-02 at cycle   2 NSaved=   2.
 NSaved= 2 IEnMin= 2 EnMin= -40.1503990553715     IErMin= 2 ErrMin= 2.27D-02
 ErrMax= 2.27D-02  0.00D+00 EMaxC= 1.00D-01 BMatC= 1.84D-02 BMatP= 1.24D-01
 IDIUse=3 WtCom= 7.73D-01 WtEn= 2.27D-01
 Coeff-Com:  0.258D+00 0.742D+00
 Coeff-En:   0.000D+00 0.100D+01
 Coeff:      0.199D+00 0.801D+00
 Gap=     0.746 Goal=   None    Shift=    0.000
 RMSDP=3.52D-03 MaxDP=5.02D-02 DE=-1.07D-01 OVMax= 4.12D-02

 Cycle   3  Pass 1  IDiag  1:
 E= -40.1678447304104     Delta-E=       -0.017445675039 Rises=F Damp=F
 DIIS: error= 2.84D-03 at cycle   3 NSaved=   3.
 NSaved= 3 IEnMin= 3 EnMin= -40.1678447304104     IErMin= 3 ErrMin= 2.84D-03
 ErrMax= 2.84D-03  0.00D+00 EMaxC= 1.00D-01 BMatC= 2.18D-04 BMatP= 1.84D-02
 IDIUse=3 WtCom= 9.72D-01 WtEn= 2.84D-02
 Coeff-Com: -0.308D-01 0.253D-01 0.101D+01
 Coeff-En:   0.000D+00 0.000D+00 0.100D+01
 Coeff:     -0.299D-01 0.246D-01 0.101D+01
 Gap=     0.737 Goal=   None    Shift=    0.000
 RMSDP=4.26D-04 MaxDP=4.29D-03 DE=-1.74D-02 OVMax= 5.67D-03

 Cycle   4  Pass 1  IDiag  1:
 E= -40.1681233366103     Delta-E=       -0.000278606200 Rises=F Damp=F
 DIIS: error= 4.20D-04 at cycle   4 NSaved=   4.
 NSaved= 4 IEnMin= 4 EnMin= -40.1681233366103     IErMin= 4 ErrMin= 4.20D-04
 ErrMax= 4.20D-04  0.00D+00 EMaxC= 1.00D-01 BMatC= 3.02D-06 BMatP= 2.18D-04
 IDIUse=3 WtCom= 9.96D-01 WtEn= 4.20D-03
 Coeff-Com:  0.829D-02-0.200D-01-0.346D+00 0.136D+01
 Coeff-En:   0.000D+00 0.000D+00 0.000D+00 0.100D+01
 Coeff:      0.826D-02-0.200D-01-0.345D+00 0.136D+01
 Gap=     0.737 Goal=   None    Shift=    0.000
 RMSDP=1.23D-04 MaxDP=9.73D-04 DE=-2.79D-04 OVMax= 1.06D-03

 Cycle   5  Pass 1  IDiag  1:
 E= -40.1681298711069     Delta-E=       -0.000006534497 Rises=F Damp=F
 DIIS: error= 1.87D-05 at cycle   5 NSaved=   5.
 NSaved= 5 IEnMin= 5 EnMin= -40.1681298711069     IErMin= 5 ErrMin= 1.87D-05
 ErrMax= 1.87D-05  0.00D+00 EMaxC= 1.00D-01 BMatC= 2.02D-08 BMatP= 3.02D-06
 IDIUse=1 WtCom= 1.00D+00 WtEn= 0.00D+00
 Coeff-Com: -0.167D-02 0.431D-02 0.750D-01-0.344D+00 0.127D+01
 Coeff:     -0.167D-02 0.431D-02 0.750D-01-0.344D+00 0.127D+01
 Gap=     0.738 Goal=   None    Shift=    0.000
 RMSDP=1.47D-05 MaxDP=9.10D-05 DE=-6.53D-06 OVMax= 9.91D-05

 Cycle   6  Pass 1  IDiag  1:
 E= -40.1681299182180     Delta-E=       -0.000000047111 Rises=F Damp=F
 DIIS: error= 1.05D-06 at cycle   6 NSaved=   6.
 NSaved= 6 IEnMin= 6 EnMin= -40.1681299182180     IErMin= 6 ErrMin= 1.05D-06
 ErrMax= 1.05D-06  0.00D+00 EMaxC= 1.00D-01 BMatC= 2.29D-11 BMatP= 2.02D-08
 IDIUse=1 WtCom= 1.00D+00 WtEn= 0.00D+00
 Coeff-Com:  0.873D-04-0.198D-03-0.370D-02 0.172D-01-0.767D-01 0.106D+01
 Coeff:      0.873D-04-0.198D-03-0.370D-02 0.172D-01-0.767D-01 0.106D+01
 Gap=     0.738 Goal=   None    Shift=    0.000
 RMSDP=5.23D-07 MaxDP=3.45D-06 DE=-4.71D-08 OVMax= 2.73D-06

 Cycle   7  Pass 1  IDiag  1:
 E= -40.1681299182583     Delta-E=       -0.000000000040 Rises=F Damp=F
 DIIS: error= 1.50D-07 at cycle   7 NSaved=   7.
 NSaved= 7 IEnMin= 7 EnMin= -40.1681299182583     IErMin= 7 ErrMin= 1.50D-07
 ErrMax= 1.50D-07  0.00D+00 EMaxC= 1.00D-01 BMatC= 5.15D-13 BMatP= 2.29D-11
 IDIUse=1 WtCom= 1.00D+00 WtEn= 0.00D+00
 Coeff-Com:  0.271D-05-0.120D-04-0.146D-03 0.647D-03-0.121D-02-0.142D+00
 Coeff-Com:  0.114D+01
 Coeff:      0.271D-05-0.120D-04-0.146D-03 0.647D-03-0.121D-02-0.142D+00
 Coeff:      0.114D+01
 Gap=     0.738 Goal=   None    Shift=    0.000
 RMSDP=8.56D-08 MaxDP=6.78D-07 DE=-4.03D-11 OVMax= 4.85D-07

 Cycle   8  Pass 1  IDiag  1:
 E= -40.1681299182596     Delta-E=       -0.000000000001 Rises=F Damp=F
 DIIS: error= 1.28D-08 at cycle   8 NSaved=   8.
 NSaved= 8 IEnMin= 8 EnMin= -40.1681299182596     IErMin= 8 ErrMin= 1.28D-08
 ErrMax= 1.28D-08  0.00D+00 EMaxC= 1.00D-01 BMatC= 7.79D-15 BMatP= 5.15D-13
 IDIUse=1 WtCom= 1.00D+00 WtEn= 0.00D+00
 Coeff-Com: -0.352D-06 0.131D-05 0.196D-04-0.928D-04 0.319D-03 0.107D-01
 Coeff-Com: -0.151D+00 0.114D+01
 Coeff:     -0.352D-06 0.131D-05 0.196D-04-0.928D-04 0.319D-03 0.107D-01
 Coeff:     -0.151D+00 0.114D+01
 Gap=     0.738 Goal=   None    Shift=    0.000
 RMSDP=6.55D-09 MaxDP=6.46D-08 DE=-1.22D-12 OVMax= 7.15D-08

 SCF Done:  E(RHF) =  -40.1681299183     A.U. after    8 cycles
            NFock=  8  Conv=0.66D-08     -V/T= 2.0048
 KE= 3.997686483991D+01 PE=-1.200706156377D+02 EE= 2.624721215245D+01
 Leave Link  502 at Mon Sep  5 10:35:19 2022, MaxMem=   262144000 cpu:               0.1 elap:               0.1
 (Enter /binaries/g16/l601.exe)
 Copying SCF densities to generalized density rwf, IOpCl= 0 IROHF=0.

 **********************************************************************

            Population analysis using the SCF Density.

 **********************************************************************

 Orbital symmetries:
       Occupied  (A) (A) (A) (A) (A)
       Virtual   (A) (A) (A) (A) (A) (A) (A) (A) (A) (A) (A) (A)
                 (A) (A) (A) (A) (A) (A) (A) (A) (A) (A) (A) (A)
                 (A) (A) (A) (A) (A)
 The electronic state is 1-A.
 Alpha  occ. eigenvalues --  -11.20859  -0.94074  -0.55107  -0.55033  -0.54893
 Alpha virt. eigenvalues --    0.18858   0.27684   0.27734   0.27754   0.59149
 Alpha virt. eigenvalues --    0.59170   0.59212   0.88043   0.93738   0.93965
 Alpha virt. eigenvalues --    0.94074   1.03260   1.33680   1.33726   1.82409
 Alpha virt. eigenvalues --    1.82418   1.82549   2.06321   2.06671   2.06765
 Alpha virt. eigenvalues --    2.47405   2.47469   2.47688   2.89052   2.89103
 Alpha virt. eigenvalues --    3.01757   3.30519   3.31116   3.31401
          Condensed to atoms (all electrons):
               1          2          3          4          5
     1  C    4.458985   0.415612   0.415883   0.415200   0.415615
     2  H    0.415612   0.620037  -0.021878  -0.022054  -0.021901
     3  H    0.415883  -0.021878   0.619684  -0.021873  -0.021876
     4  H    0.415200  -0.022054  -0.021873   0.619917  -0.022052
     5  H    0.415615  -0.021901  -0.021876  -0.022052   0.620023
 Mulliken charges:
               1
     1  C   -0.121296
     2  H    0.030183
     3  H    0.030060
     4  H    0.030862
     5  H    0.030190
 Sum of Mulliken charges =  -0.00000
 Mulliken charges with hydrogens summed into heavy atoms:
               1
     1  C   -0.000000
 Electronic spatial extent (au):  <R**2>=             34.8918
 Charge=             -0.0000 electrons
 Dipole moment (field-independent basis, Debye):
    X=             -0.0035    Y=             -0.0000    Z=              0.0004  Tot=              0.0035
 Quadrupole moment (field-independent basis, Debye-Ang):
   XX=             -8.3026   YY=             -8.3031   ZZ=             -8.3019
   XY=             -0.0000   XZ=             -0.0034   YZ=             -0.0001
 Traceless Quadrupole moment (field-independent basis, Debye-Ang):
   XX=             -0.0001   YY=             -0.0005   ZZ=              0.0006
   XY=             -0.0000   XZ=             -0.0034   YZ=             -0.0001
 Octapole moment (field-independent basis, Debye-Ang**2):
  XXX=              0.6315  YYY=              0.0120  ZZZ=              0.4055  XYY=             -0.3049
  XXY=              0.0023  XXZ=              0.0748  XZZ=             -0.3512  YZZ=             -0.0145
  YYZ=             -0.4742  XYZ=              0.0019
 Hexadecapole moment (field-independent basis, Debye-Ang**3):
 XXXX=            -14.7366 YYYY=            -14.8945 ZZZZ=            -14.9380 XXXY=              0.0020
 XXXZ=              0.0371 YYYX=             -0.0108 YYYZ=              0.0010 ZZZX=             -0.3435
 ZZZY=              0.0008 XXYY=             -5.2301 XXZZ=             -5.1524 YYZZ=             -4.9246
 XXYZ=             -0.0022 YYXZ=              0.2906 ZZXY=              0.0088
 N-N= 1.367840872710D+01 E-N=-1.200706157071D+02  KE= 3.997686483991D+01
 No NMR shielding tensors so no spin-rotation constants.
 Leave Link  601 at Mon Sep  5 10:35:19 2022, MaxMem=   262144000 cpu:               0.0 elap:               0.0
 (Enter /binaries/g16/l701.exe)
 ... and contract with generalized density number  0.
 Compute integral first derivatives.
   1 Symmetry operations used in ECPInt.
 ECPInt:  NShTT=     171 NPrTT=     553 LenC2=     172 LenP2D=     543.
 LDataN:  DoStor=T MaxTD1= 5 Len=  102
 Leave Link  701 at Mon Sep  5 10:35:19 2022, MaxMem=   262144000 cpu:               0.0 elap:               0.1
 (Enter /binaries/g16/l702.exe)
 L702 exits ... SP integral derivatives will be done elsewhere.
 Leave Link  702 at Mon Sep  5 10:35:19 2022, MaxMem=   262144000 cpu:               0.0 elap:               0.0
 (Enter /binaries/g16/l703.exe)
 Integral derivatives from FoFJK, PRISM(SPDF).
 Compute integral first derivatives, UseDBF=F ICtDFT=           0.
 Calling FoFJK, ICntrl=      2127 FMM=F ISym2X=0 I1Cent= 0 IOpClX= 0 NMat=1 NMatS=1 NMatT=0.
 FoFJK:  IHMeth= 1 ICntrl=    2127 DoSepK=F KAlg= 0 I1Cent=           0 FoldK=F
 IRaf=         0 NMat=       1 IRICut=       1 DoRegI=T DoRafI=F ISym2E= 0 IDoP0=0 IntGTp=1.
 FoFCou: FMM=F IPFlag=           0 FMFlag=      100000 FMFlg1=         800
         NFxFlg=           0 DoJE=F BraDBF=F KetDBF=F FulRan=T
         wScrn=  0.000000 ICntrl=      2127 IOpCl=  0 I1Cent=           0 NGrid=           0
         NMat0=    1 NMatS0=      1 NMatT0=    0 NMatD0=    1 NMtDS0=    0 NMtDT0=    0
 Symmetry not used in FoFCou.
 Leave Link  703 at Mon Sep  5 10:35:19 2022, MaxMem=   262144000 cpu:               0.1 elap:               0.1
 (Enter /binaries/g16/l716.exe)
 Dipole        =-1.37737012D-03-1.36478134D-05 1.64880065D-04
 ***** Axes restored to original set *****
 -------------------------------------------------------------------
 Center     Atomic                   Forces (Hartrees/Bohr)
 Number     Number              X              Y              Z
 -------------------------------------------------------------------
      1        6           0.000537623    0.000741490   -0.004746594
      2        1           0.004977475   -0.014129602    0.000047229
      3        1           0.005687128    0.008048480    0.013645879
      4        1           0.003780930    0.005352880   -0.008993764
      5        1          -0.014983155   -0.000013248    0.000047250
 -------------------------------------------------------------------
 Cartesian Forces:  Max     0.014983155 RMS     0.007657056
 Leave Link  716 at Mon Sep  5 10:35:19 2022, MaxMem=   262144000 cpu:               0.0 elap:               0.0
 (Enter /binaries/g16/l103.exe)

 GradGradGradGradGradGradGradGradGradGradGradGradGradGradGradGradGradGrad
 Berny optimization.
 FormGI is forming the generalized inverse of G from B-inverse, IUseBI=4.
 Internal  Forces:  Max     0.016831861 RMS     0.007819767
 Search for a local minimum.
 Step number   1 out of a maximum of   24
 All quantities printed in internal units (Hartrees-Bohrs-Radians)
 RMS Force = .78198D-02 SwitMx=.10000D-02 MixMth= 1
 Mixed Optimization -- RFO/linear search
 Second derivative matrix not updated -- first step.
 The second derivative matrix:
                          R1        R2        R3        R4        A1
           R1           0.37229
           R2           0.00000   0.37535
           R3           0.00000   0.00000   0.36611
           R4           0.00000   0.00000   0.00000   0.37230
           A1           0.00000   0.00000   0.00000   0.00000   0.16000
           A2           0.00000   0.00000   0.00000   0.00000   0.00000
           A3           0.00000   0.00000   0.00000   0.00000   0.00000
           A4           0.00000   0.00000   0.00000   0.00000   0.00000
           A5           0.00000   0.00000   0.00000   0.00000   0.00000
           A6           0.00000   0.00000   0.00000   0.00000   0.00000
           D1           0.00000   0.00000   0.00000   0.00000   0.00000
           D2           0.00000   0.00000   0.00000   0.00000   0.00000
           D3           0.00000   0.00000   0.00000   0.00000   0.00000
           D4           0.00000   0.00000   0.00000   0.00000   0.00000
                          A2        A3        A4        A5        A6
           A2           0.16000
           A3           0.00000   0.16000
           A4           0.00000   0.00000   0.16000
           A5           0.00000   0.00000   0.00000   0.16000
           A6           0.00000   0.00000   0.00000   0.00000   0.16000
           D1           0.00000   0.00000   0.00000   0.00000   0.00000
           D2           0.00000   0.00000   0.00000   0.00000   0.00000
           D3           0.00000   0.00000   0.00000   0.00000   0.00000
           D4           0.00000   0.00000   0.00000   0.00000   0.00000
                          D1        D2        D3        D4
           D1           0.00434
           D2           0.00000   0.00499
           D3           0.00000   0.00000   0.00499
           D4           0.00000   0.00000   0.00000   0.00499
 ITU=  0
     Eigenvalues ---    0.05257   0.05901   0.08731   0.16000   0.16000
     Eigenvalues ---    0.36611   0.37229   0.37230   0.37535
 RFO step:  Lambda=-2.28533450D-03 EMin= 5.25714373D-02
 Linear search not attempted -- first point.
 Iteration  1 RMS(Cart)=  0.02082275 RMS(Int)=  0.00001289
 Iteration  2 RMS(Cart)=  0.00000951 RMS(Int)=  0.00000019
 Iteration  3 RMS(Cart)=  0.00000000 RMS(Int)=  0.00000019
 ITry= 1 IFail=0 DXMaxC= 4.00D-02 DCOld= 1.00D+10 DXMaxT= 3.00D-01 DXLimC= 3.00D+00 Rises=F
 Variable       Old X    -DE/DX   Delta X   Delta X   Delta X     New X
                                 (Linear)    (Quad)   (Total)
    R1        2.02202   0.01498   0.00000   0.03999   0.03999   2.06201
    R2        2.01747   0.01683   0.00000   0.04457   0.04457   2.06205
    R3        2.03137   0.01113   0.00000   0.03020   0.03020   2.06157
    R4        2.02201   0.01498   0.00000   0.04000   0.04000   2.06201
    A1        1.91140   0.00002   0.00000   0.00007   0.00007   1.91147
    A2        1.90898   0.00003   0.00000   0.00068   0.00068   1.90965
    A3        1.91066  -0.00005   0.00000   0.00014   0.00014   1.91080
    A4        1.91226  -0.00015   0.00000  -0.00162  -0.00162   1.91064
    A5        1.91146   0.00003   0.00000   0.00004   0.00004   1.91150
    A6        1.90904   0.00011   0.00000   0.00069   0.00069   1.90973
    D1       -2.09531   0.00004   0.00000   0.00049   0.00049  -2.09483
    D2        2.09586   0.00002   0.00000   0.00020   0.00020   2.09606
    D3       -2.09141  -0.00008   0.00000  -0.00133  -0.00133  -2.09274
    D4        2.09592  -0.00010   0.00000  -0.00154  -0.00154   2.09438
         Item               Value     Threshold  Converged?
 Maximum Force            0.016832     0.000450     NO 
 RMS     Force            0.007820     0.000300     NO 
 Maximum Displacement     0.039988     0.001800     NO 
 RMS     Displacement     0.020823     0.001200     NO 
 Predicted change in Energy=-1.149645D-03
 Lowest energy point so far.  Saving SCF results.
 GradGradGradGradGradGradGradGradGradGradGradGradGradGradGradGradGradGrad

 Leave Link  103 at Mon Sep  5 10:35:19 2022, MaxMem=   262144000 cpu:               0.0 elap:               0.0
 (Enter /binaries/g16/l202.exe)
                          Input orientation:                          
 ---------------------------------------------------------------------
 Center     Atomic      Atomic             Coordinates (Angstroms)
 Number     Number       Type             X           Y           Z
 ---------------------------------------------------------------------
      1          6           0        4.291806    3.658805   -0.001388
      2          1           0        4.655630    2.630076   -0.001099
      3          1           0        4.656715    4.174832    0.888133
      4          1           0        4.654309    4.171406   -0.893562
      5          1           0        3.200639    3.658882   -0.001085
 ---------------------------------------------------------------------
                    Distance matrix (angstroms):
                    1          2          3          4          5
     1  C    0.000000
     2  H    1.091169   0.000000
     3  H    1.091188   1.782416   0.000000
     4  H    1.090937   1.781064   1.781700   0.000000
     5  H    1.091167   1.781976   1.782434   1.781110   0.000000
 Stoichiometry    CH4
 Framework group  C1[X(CH4)]
 Deg. of freedom     9
 Full point group                 C1      NOp   1
 RotChk:  IX=0 Diff= 1.75D+00
 Largest Abelian subgroup         C1      NOp   1
 Largest concise Abelian subgroup C1      NOp   1
                         Standard orientation:                         
 ---------------------------------------------------------------------
 Center     Atomic      Atomic             Coordinates (Angstroms)
 Number     Number       Type             X           Y           Z
 ---------------------------------------------------------------------
      1          6           0       -0.000145    0.000011   -0.000146
      2          1           0        0.434743   -0.885487   -0.466424
      3          1           0       -1.076865    0.013471   -0.176734
      4          1           0        0.192012   -0.024082    1.073463
      5          1           0        0.450978    0.896031   -0.429428
 ---------------------------------------------------------------------
 Rotational constants (GHZ):         158.0262921         157.9680546         157.8585513
 Leave Link  202 at Mon Sep  5 10:35:19 2022, MaxMem=   262144000 cpu:               0.0 elap:               0.0
 (Enter /binaries/g16/l301.exe)
 Standard basis: def2SVP (5D, 7F)
 Ernie: Thresh=  0.10000D-02 Tol=  0.10000D-05 Strict=F.
 There are    35 symmetry adapted cartesian basis functions of A   symmetry.
 There are    34 symmetry adapted basis functions of A   symmetry.
    34 basis functions,    53 primitive gaussians,    35 cartesian basis functions
     5 alpha electrons        5 beta electrons
       nuclear repulsion energy        13.4216589194 Hartrees.
 IExCor=    0 DFT=F Ex=HF Corr=None ExCW=0 ScaHFX=  1.000000
 ScaDFX=  1.000000  1.000000  1.000000  1.000000 ScalE2=  1.000000  1.000000
 IRadAn=      5 IRanWt=     -1 IRanGd=            0 ICorTp=0 IEmpDi=  4
 NAtoms=    5 NActive=    5 NUniq=    5 SFac= 1.00D+00 NAtFMM=   60 NAOKFM=F Big=F
 Integral buffers will be    131072 words long.
 Raffenetti 1 integral format.
 Two-electron integral symmetry is turned on.
 Leave Link  301 at Mon Sep  5 10:35:19 2022, MaxMem=   262144000 cpu:               0.0 elap:               0.0
 (Enter /binaries/g16/l302.exe)
 NPDir=0 NMtPBC=     1 NCelOv=     1 NCel=       1 NClECP=     1 NCelD=      1
         NCelK=      1 NCelE2=     1 NClLst=     1 CellRange=     0.0.
 One-electron integrals computed using PRISM.
 One-electron integral symmetry used in STVInt
   1 Symmetry operations used in ECPInt.
 ECPInt:  NShTT=     171 NPrTT=     553 LenC2=     172 LenP2D=     539.
 LDataN:  DoStor=T MaxTD1= 4 Len=   56
 NBasis=    34 RedAO= T EigKep=  1.40D-02  NBF=    34
 NBsUse=    34 1.00D-06 EigRej= -1.00D+00 NBFU=    34
 Leave Link  302 at Mon Sep  5 10:35:19 2022, MaxMem=   262144000 cpu:               0.1 elap:               0.0
 (Enter /binaries/g16/l303.exe)
 DipDrv:  MaxL=1.
 Leave Link  303 at Mon Sep  5 10:35:19 2022, MaxMem=   262144000 cpu:               0.0 elap:               0.0
 (Enter /binaries/g16/l401.exe)
 Initial guess from the checkpoint file:  "in.chk"
 B after Tr=    -0.000000    0.000000    0.000000
         Rot=    0.784259   -0.002146    0.620269    0.014127 Ang= -76.70 deg.
 Guess basis will be translated and rotated to current coordinates.
 JPrj=2 DoOrth=T DoCkMO=T.
 Generating alternative initial guess.
 ExpMin= 1.22D-01 ExpMax= 1.24D+03 ExpMxC= 1.86D+02 IAcc=3 IRadAn=         5 AccDes= 0.00D+00
 Harris functional with IExCor=  205 and IRadAn=       5 diagonalized for initial guess.
 HarFok:  IExCor=  205 AccDes= 0.00D+00 IRadAn=         5 IDoV= 1 UseB2=F ITyADJ=14
 ICtDFT=  3500011 ScaDFX=  1.000000  1.000000  1.000000  1.000000
 FoFCou: FMM=F IPFlag=           0 FMFlag=      100000 FMFlg1=           0
         NFxFlg=           0 DoJE=T BraDBF=F KetDBF=T FulRan=T
         wScrn=  0.000000 ICntrl=       500 IOpCl=  0 I1Cent=   200000004 NGrid=           0
         NMat0=    1 NMatS0=      1 NMatT0=    0 NMatD0=    1 NMtDS0=    0 NMtDT0=    0
 Petite list used in FoFCou.
 Harris En= -40.3401753098244    
 Leave Link  401 at Mon Sep  5 10:35:20 2022, MaxMem=   262144000 cpu:               0.2 elap:               0.2
 (Enter /binaries/g16/l502.exe)
 Keep R1 ints in memory in canonical form, NReq=1009981.
 FoFCou: FMM=F IPFlag=           0 FMFlag=           0 FMFlg1=           0
         NFxFlg=           0 DoJE=F BraDBF=F KetDBF=F FulRan=T
         wScrn=  0.000000 ICntrl=       600 IOpCl=  0 I1Cent=           0 NGrid=           0
         NMat0=    1 NMatS0=    595 NMatT0=    0 NMatD0=    1 NMtDS0=    0 NMtDT0=    0
 Symmetry not used in FoFCou.
 Two-electron integral symmetry not used.
 Closed shell SCF:
 Using DIIS extrapolation, IDIIS=  1040.
 NGot=   262144000 LenX=   261963332 LenY=   261961666
 Requested convergence on RMS density matrix=1.00D-08 within 128 cycles.
 Requested convergence on MAX density matrix=1.00D-06.
 Requested convergence on             energy=1.00D-06.
 No special actions if energy rises.

 Cycle   1  Pass 1  IDiag  1:
 E= -40.1688997943059    
 DIIS: error= 3.87D-03 at cycle   1 NSaved=   1.
 NSaved= 1 IEnMin= 1 EnMin= -40.1688997943059     IErMin= 1 ErrMin= 3.87D-03
 ErrMax= 3.87D-03  0.00D+00 EMaxC= 1.00D-01 BMatC= 2.36D-04 BMatP= 2.36D-04
 IDIUse=3 WtCom= 9.61D-01 WtEn= 3.87D-02
 Coeff-Com:  0.100D+01
 Coeff-En:   0.100D+01
 Coeff:      0.100D+01
 Gap=     0.984 Goal=   None    Shift=    0.000
 GapD=    0.984 DampG=2.000 DampE=1.000 DampFc=2.0000 IDamp=-1.
 RMSDP=5.45D-04 MaxDP=6.01D-03              OVMax= 5.09D-03

 Cycle   2  Pass 1  IDiag  1:
 E= -40.1691547485096     Delta-E=       -0.000254954204 Rises=F Damp=F
 DIIS: error= 1.07D-03 at cycle   2 NSaved=   2.
 NSaved= 2 IEnMin= 2 EnMin= -40.1691547485096     IErMin= 2 ErrMin= 1.07D-03
 ErrMax= 1.07D-03  0.00D+00 EMaxC= 1.00D-01 BMatC= 1.63D-05 BMatP= 2.36D-04
 IDIUse=3 WtCom= 9.89D-01 WtEn= 1.07D-02
 Coeff-Com: -0.225D-02 0.100D+01
 Coeff-En:   0.000D+00 0.100D+01
 Coeff:     -0.223D-02 0.100D+01
 Gap=     0.732 Goal=   None    Shift=    0.000
 RMSDP=1.21D-04 MaxDP=2.33D-03 DE=-2.55D-04 OVMax= 1.64D-03

 Cycle   3  Pass 1  IDiag  1:
 E= -40.1691702295071     Delta-E=       -0.000015480997 Rises=F Damp=F
 DIIS: error= 2.11D-04 at cycle   3 NSaved=   3.
 NSaved= 3 IEnMin= 3 EnMin= -40.1691702295071     IErMin= 3 ErrMin= 2.11D-04
 ErrMax= 2.11D-04  0.00D+00 EMaxC= 1.00D-01 BMatC= 1.58D-06 BMatP= 1.63D-05
 IDIUse=3 WtCom= 9.98D-01 WtEn= 2.11D-03
 Coeff-Com: -0.547D-01 0.196D+00 0.858D+00
 Coeff-En:   0.000D+00 0.000D+00 0.100D+01
 Coeff:     -0.546D-01 0.196D+00 0.859D+00
 Gap=     0.731 Goal=   None    Shift=    0.000
 RMSDP=3.49D-05 MaxDP=3.91D-04 DE=-1.55D-05 OVMax= 4.88D-04

 Cycle   4  Pass 1  IDiag  1:
 E= -40.1691721024389     Delta-E=       -0.000001872932 Rises=F Damp=F
 DIIS: error= 2.68D-05 at cycle   4 NSaved=   4.
 NSaved= 4 IEnMin= 4 EnMin= -40.1691721024389     IErMin= 4 ErrMin= 2.68D-05
 ErrMax= 2.68D-05  0.00D+00 EMaxC= 1.00D-01 BMatC= 1.52D-08 BMatP= 1.58D-06
 IDIUse=1 WtCom= 1.00D+00 WtEn= 0.00D+00
 Coeff-Com:  0.106D-01-0.540D-01-0.195D+00 0.124D+01
 Coeff:      0.106D-01-0.540D-01-0.195D+00 0.124D+01
 Gap=     0.731 Goal=   None    Shift=    0.000
 RMSDP=6.15D-06 MaxDP=5.28D-05 DE=-1.87D-06 OVMax= 7.17D-05

 Cycle   5  Pass 1  IDiag  1:
 E= -40.1691721353765     Delta-E=       -0.000000032938 Rises=F Damp=F
 DIIS: error= 2.94D-06 at cycle   5 NSaved=   5.
 NSaved= 5 IEnMin= 5 EnMin= -40.1691721353765     IErMin= 5 ErrMin= 2.94D-06
 ErrMax= 2.94D-06  0.00D+00 EMaxC= 1.00D-01 BMatC= 2.54D-10 BMatP= 1.52D-08
 IDIUse=1 WtCom= 1.00D+00 WtEn= 0.00D+00
 Coeff-Com: -0.136D-02 0.844D-02 0.250D-01-0.244D+00 0.121D+01
 Coeff:     -0.136D-02 0.844D-02 0.250D-01-0.244D+00 0.121D+01
 Gap=     0.731 Goal=   None    Shift=    0.000
 RMSDP=1.15D-06 MaxDP=1.18D-05 DE=-3.29D-08 OVMax= 1.39D-05

 Cycle   6  Pass 1  IDiag  1:
 E= -40.1691721359994     Delta-E=       -0.000000000623 Rises=F Damp=F
 DIIS: error= 5.85D-07 at cycle   6 NSaved=   6.
 NSaved= 6 IEnMin= 6 EnMin= -40.1691721359994     IErMin= 6 ErrMin= 5.85D-07
 ErrMax= 5.85D-07  0.00D+00 EMaxC= 1.00D-01 BMatC= 7.45D-12 BMatP= 2.54D-10
 IDIUse=1 WtCom= 1.00D+00 WtEn= 0.00D+00
 Coeff-Com: -0.648D-04 0.188D-03 0.941D-03 0.489D-02-0.179D+00 0.117D+01
 Coeff:     -0.648D-04 0.188D-03 0.941D-03 0.489D-02-0.179D+00 0.117D+01
 Gap=     0.731 Goal=   None    Shift=    0.000
 RMSDP=2.19D-07 MaxDP=2.30D-06 DE=-6.23D-10 OVMax= 2.77D-06

 Cycle   7  Pass 1  IDiag  1:
 E= -40.1691721360200     Delta-E=       -0.000000000021 Rises=F Damp=F
 DIIS: error= 1.15D-07 at cycle   7 NSaved=   7.
 NSaved= 7 IEnMin= 7 EnMin= -40.1691721360200     IErMin= 7 ErrMin= 1.15D-07
 ErrMax= 1.15D-07  0.00D+00 EMaxC= 1.00D-01 BMatC= 2.62D-13 BMatP= 7.45D-12
 IDIUse=1 WtCom= 1.00D+00 WtEn= 0.00D+00
 Coeff-Com:  0.626D-04-0.342D-03-0.114D-02 0.826D-02-0.148D-01-0.209D+00
 Coeff-Com:  0.122D+01
 Coeff:      0.626D-04-0.342D-03-0.114D-02 0.826D-02-0.148D-01-0.209D+00
 Coeff:      0.122D+01
 Gap=     0.731 Goal=   None    Shift=    0.000
 RMSDP=4.00D-08 MaxDP=3.92D-07 DE=-2.06D-11 OVMax= 5.54D-07

 Cycle   8  Pass 1  IDiag  1:
 E= -40.1691721360207     Delta-E=       -0.000000000001 Rises=F Damp=F
 DIIS: error= 1.15D-08 at cycle   8 NSaved=   8.
 NSaved= 8 IEnMin= 8 EnMin= -40.1691721360207     IErMin= 8 ErrMin= 1.15D-08
 ErrMax= 1.15D-08  0.00D+00 EMaxC= 1.00D-01 BMatC= 3.02D-15 BMatP= 2.62D-13
 IDIUse=1 WtCom= 1.00D+00 WtEn= 0.00D+00
 Coeff-Com: -0.101D-04 0.555D-04 0.198D-03-0.154D-02 0.530D-02 0.197D-01
 Coeff-Com: -0.211D+00 0.119D+01
 Coeff:     -0.101D-04 0.555D-04 0.198D-03-0.154D-02 0.530D-02 0.197D-01
 Coeff:     -0.211D+00 0.119D+01
 Gap=     0.731 Goal=   None    Shift=    0.000
 RMSDP=4.13D-09 MaxDP=3.57D-08 DE=-7.32D-13 OVMax= 4.02D-08

 SCF Done:  E(RHF) =  -40.1691721360     A.U. after    8 cycles
            NFock=  8  Conv=0.41D-08     -V/T= 2.0077
 KE= 3.986335958151D+01 PE=-1.194756998139D+02 EE= 2.602150917701D+01
 Leave Link  502 at Mon Sep  5 10:35:20 2022, MaxMem=   262144000 cpu:               0.1 elap:               0.1
 (Enter /binaries/g16/l701.exe)
 ... and contract with generalized density number  0.
 Compute integral first derivatives.
   1 Symmetry operations used in ECPInt.
 ECPInt:  NShTT=     171 NPrTT=     553 LenC2=     172 LenP2D=     539.
 LDataN:  DoStor=T MaxTD1= 5 Len=  102
 Leave Link  701 at Mon Sep  5 10:35:20 2022, MaxMem=   262144000 cpu:               0.0 elap:               0.0
 (Enter /binaries/g16/l702.exe)
 L702 exits ... SP integral derivatives will be done elsewhere.
 Leave Link  702 at Mon Sep  5 10:35:20 2022, MaxMem=   262144000 cpu:               0.0 elap:               0.0
 (Enter /binaries/g16/l703.exe)
 Integral derivatives from FoFJK, PRISM(SPDF).
 Compute integral first derivatives, UseDBF=F ICtDFT=           0.
 Calling FoFJK, ICntrl=      2127 FMM=F ISym2X=0 I1Cent= 0 IOpClX= 0 NMat=1 NMatS=1 NMatT=0.
 FoFJK:  IHMeth= 1 ICntrl=    2127 DoSepK=F KAlg= 0 I1Cent=           0 FoldK=F
 IRaf=         0 NMat=       1 IRICut=       1 DoRegI=T DoRafI=F ISym2E= 0 IDoP0=0 IntGTp=1.
 FoFCou: FMM=F IPFlag=           0 FMFlag=      100000 FMFlg1=         800
         NFxFlg=           0 DoJE=F BraDBF=F KetDBF=F FulRan=T
         wScrn=  0.000000 ICntrl=      2127 IOpCl=  0 I1Cent=           0 NGrid=           0
         NMat0=    1 NMatS0=      1 NMatT0=    0 NMatD0=    1 NMtDS0=    0 NMtDT0=    0
 Symmetry not used in FoFCou.
 Leave Link  703 at Mon Sep  5 10:35:20 2022, MaxMem=   262144000 cpu:               0.1 elap:               0.1
 (Enter /binaries/g16/l716.exe)
 Dipole        = 1.94493506D-04-1.46588147D-05 2.66037089D-04
 ***** Axes restored to original set *****
 -------------------------------------------------------------------
 Center     Atomic                   Forces (Hartrees/Bohr)
 Number     Number              X              Y              Z
 -------------------------------------------------------------------
      1        6          -0.000030942   -0.000058454   -0.000099457
      2        1          -0.000360048    0.000963791    0.000110093
      3        1          -0.000387825   -0.000545337   -0.000836734
      4        1          -0.000249789   -0.000345451    0.000718713
      5        1           0.001028604   -0.000014549    0.000107384
 -------------------------------------------------------------------
 Cartesian Forces:  Max     0.001028604 RMS     0.000516455
 Leave Link  716 at Mon Sep  5 10:35:20 2022, MaxMem=   262144000 cpu:               0.0 elap:               0.0
 (Enter /binaries/g16/l103.exe)

 GradGradGradGradGradGradGradGradGradGradGradGradGradGradGradGradGradGrad
 Berny optimization.
 Using GEDIIS/GDIIS optimizer.
 FormGI is forming the generalized inverse of G from B-inverse, IUseBI=4.
 Internal  Forces:  Max     0.001069680 RMS     0.000533373
 Search for a local minimum.
 Step number   2 out of a maximum of   24
 All quantities printed in internal units (Hartrees-Bohrs-Radians)
 RMS Force = .53337D-03 SwitMx=.10000D-02 MixMth= 2
 Mixed Optimization -- En-DIIS/RFO-DIIS
 Update second derivatives using D2CorX and points    1    2
 DE= -1.04D-03 DEPred=-1.15D-03 R= 9.07D-01
 TightC=F SS=  1.41D+00  RLast= 7.81D-02 DXNew= 5.0454D-01 2.3443D-01
 Trust test= 9.07D-01 RLast= 7.81D-02 DXMaxT set to 3.00D-01
 The second derivative matrix:
                          R1        R2        R3        R4        A1
           R1           0.37972
           R2           0.00777   0.38345
           R3           0.00598   0.00629   0.37089
           R4           0.00743   0.00777   0.00598   0.37973
           A1           0.00019   0.00022   0.00015   0.00019   0.16000
           A2          -0.00075  -0.00084  -0.00056  -0.00075  -0.00000
           A3          -0.00028  -0.00032  -0.00021  -0.00028  -0.00000
           A4           0.00073   0.00082   0.00053   0.00073  -0.00000
           A5           0.00066   0.00074   0.00049   0.00066   0.00000
           A6          -0.00055  -0.00061  -0.00040  -0.00055  -0.00000
           D1           0.00028   0.00031   0.00021   0.00028   0.00000
           D2           0.00067   0.00075   0.00050   0.00067   0.00000
           D3           0.00007   0.00008   0.00005   0.00007   0.00000
           D4          -0.00060  -0.00068  -0.00045  -0.00060  -0.00000
                          A2        A3        A4        A5        A6
           A2           0.15999
           A3          -0.00000   0.16000
           A4           0.00001   0.00000   0.15998
           A5          -0.00000  -0.00000  -0.00001   0.16000
           A6          -0.00001  -0.00000   0.00001   0.00000   0.15999
           D1          -0.00000  -0.00000  -0.00000   0.00000   0.00000
           D2          -0.00000  -0.00000  -0.00001   0.00000   0.00000
           D3           0.00000   0.00000  -0.00000   0.00000   0.00000
           D4           0.00000   0.00000   0.00001  -0.00000  -0.00000
                          D1        D2        D3        D4
           D1           0.00434
           D2           0.00000   0.00500
           D3           0.00000   0.00000   0.00499
           D4          -0.00000  -0.00000  -0.00000   0.00500
 ITU=  1  0
 Use linear search instead of GDIIS.
     Eigenvalues ---    0.05256   0.05896   0.08738   0.15999   0.16000
     Eigenvalues ---    0.36707   0.37230   0.37420   0.40023
 RFO step:  Lambda=-3.96868387D-07 EMin= 5.25566499D-02
 Quartic linear search produced a step of -0.06700.
 Iteration  1 RMS(Cart)=  0.00146514 RMS(Int)=  0.00000081
 Iteration  2 RMS(Cart)=  0.00000053 RMS(Int)=  0.00000022
 ITry= 1 IFail=0 DXMaxC= 2.74D-03 DCOld= 1.00D+10 DXMaxT= 3.00D-01 DXLimC= 3.00D+00 Rises=F
 Variable       Old X    -DE/DX   Delta X   Delta X   Delta X     New X
                                 (Linear)    (Quad)   (Total)
    R1        2.06201  -0.00103  -0.00268  -0.00003  -0.00270   2.05931
    R2        2.06205  -0.00107  -0.00299   0.00019  -0.00280   2.05925
    R3        2.06157  -0.00083  -0.00202  -0.00020  -0.00222   2.05935
    R4        2.06201  -0.00103  -0.00268  -0.00002  -0.00270   2.05930
    A1        1.91147  -0.00002  -0.00000  -0.00064  -0.00065   1.91082
    A2        1.90965   0.00004  -0.00005   0.00081   0.00076   1.91041
    A3        1.91080  -0.00003  -0.00001  -0.00016  -0.00017   1.91063
    A4        1.91064  -0.00000   0.00011  -0.00007   0.00004   1.91068
    A5        1.91150  -0.00007  -0.00000  -0.00070  -0.00071   1.91080
    A6        1.90973   0.00008  -0.00005   0.00077   0.00073   1.91046
    D1       -2.09483  -0.00000  -0.00003   0.00034   0.00030  -2.09452
    D2        2.09606  -0.00008  -0.00001  -0.00132  -0.00133   2.09473
    D3       -2.09274  -0.00008   0.00009  -0.00136  -0.00127  -2.09402
    D4        2.09438   0.00000   0.00010  -0.00004   0.00006   2.09444
         Item               Value     Threshold  Converged?
 Maximum Force            0.001070     0.000450     NO 
 RMS     Force            0.000533     0.000300     NO 
 Maximum Displacement     0.002738     0.001800     NO 
 RMS     Displacement     0.001465     0.001200     NO 
 Predicted change in Energy=-5.107800D-06
 Lowest energy point so far.  Saving SCF results.
 GradGradGradGradGradGradGradGradGradGradGradGradGradGradGradGradGradGrad

 Leave Link  103 at Mon Sep  5 10:35:20 2022, MaxMem=   262144000 cpu:               0.0 elap:               0.0
 (Enter /binaries/g16/l202.exe)
                          Input orientation:                          
 ---------------------------------------------------------------------
 Center     Atomic      Atomic             Coordinates (Angstroms)
 Number     Number       Type             X           Y           Z
 ---------------------------------------------------------------------
      1          6           0        4.291823    3.658809   -0.001697
      2          1           0        4.655070    2.631395   -0.000740
      3          1           0        4.656024    4.173878    0.886854
      4          1           0        4.654095    4.171112   -0.892699
      5          1           0        3.202088    3.658805   -0.000718
 ---------------------------------------------------------------------
                    Distance matrix (angstroms):
                    1          2          3          4          5
     1  C    0.000000
     2  H    1.089738   0.000000
     3  H    1.089707   1.779629   0.000000
     4  H    1.089762   1.779416   1.779556   0.000000
     5  H    1.089735   1.779530   1.779611   1.779441   0.000000
 Stoichiometry    CH4
 Framework group  C1[X(CH4)]
 Deg. of freedom     9
 Full point group                 C1      NOp   1
 RotChk:  IX=0 Diff= 2.44D-01
 Largest Abelian subgroup         C1      NOp   1
 Largest concise Abelian subgroup C1      NOp   1
                         Standard orientation:                         
 ---------------------------------------------------------------------
 Center     Atomic      Atomic             Coordinates (Angstroms)
 Number     Number       Type             X           Y           Z
 ---------------------------------------------------------------------
      1          6           0       -0.000043   -0.000000   -0.000029
      2          1           0        0.492008   -0.781177   -0.578974
      3          1           0       -1.080744   -0.107377   -0.089561
      4          1           0        0.288278   -0.088090    1.047201
      5          1           0        0.300715    0.976645   -0.378490
 ---------------------------------------------------------------------
 Rotational constants (GHZ):         158.3635767         158.3510949         158.3387822
 Leave Link  202 at Mon Sep  5 10:35:20 2022, MaxMem=   262144000 cpu:               0.0 elap:               0.0
 (Enter /binaries/g16/l301.exe)
 Standard basis: def2SVP (5D, 7F)
 Ernie: Thresh=  0.10000D-02 Tol=  0.10000D-05 Strict=F.
 There are    35 symmetry adapted cartesian basis functions of A   symmetry.
 There are    34 symmetry adapted basis functions of A   symmetry.
    34 basis functions,    53 primitive gaussians,    35 cartesian basis functions
     5 alpha electrons        5 beta electrons
       nuclear repulsion energy        13.4386517884 Hartrees.
 IExCor=    0 DFT=F Ex=HF Corr=None ExCW=0 ScaHFX=  1.000000
 ScaDFX=  1.000000  1.000000  1.000000  1.000000 ScalE2=  1.000000  1.000000
 IRadAn=      5 IRanWt=     -1 IRanGd=            0 ICorTp=0 IEmpDi=  4
 NAtoms=    5 NActive=    5 NUniq=    5 SFac= 1.00D+00 NAtFMM=   60 NAOKFM=F Big=F
 Integral buffers will be    131072 words long.
 Raffenetti 1 integral format.
 Two-electron integral symmetry is turned on.
 Leave Link  301 at Mon Sep  5 10:35:20 2022, MaxMem=   262144000 cpu:               0.0 elap:               0.0
 (Enter /binaries/g16/l302.exe)
 NPDir=0 NMtPBC=     1 NCelOv=     1 NCel=       1 NClECP=     1 NCelD=      1
         NCelK=      1 NCelE2=     1 NClLst=     1 CellRange=     0.0.
 One-electron integrals computed using PRISM.
 One-electron integral symmetry used in STVInt
   1 Symmetry operations used in ECPInt.
 ECPInt:  NShTT=     171 NPrTT=     553 LenC2=     172 LenP2D=     539.
 LDataN:  DoStor=T MaxTD1= 4 Len=   56
 NBasis=    34 RedAO= T EigKep=  1.39D-02  NBF=    34
 NBsUse=    34 1.00D-06 EigRej= -1.00D+00 NBFU=    34
 Leave Link  302 at Mon Sep  5 10:35:20 2022, MaxMem=   262144000 cpu:               0.0 elap:               0.0
 (Enter /binaries/g16/l303.exe)
 DipDrv:  MaxL=1.
 Leave Link  303 at Mon Sep  5 10:35:20 2022, MaxMem=   262144000 cpu:               0.0 elap:               0.0
 (Enter /binaries/g16/l401.exe)
 Initial guess from the checkpoint file:  "in.chk"
 B after Tr=     0.000000    0.000000   -0.000000
         Rot=    0.996257   -0.043972   -0.042221   -0.061278 Ang=  -9.92 deg.
 Guess basis will be translated and rotated to current coordinates.
 JPrj=2 DoOrth=T DoCkMO=T.
 Leave Link  401 at Mon Sep  5 10:35:20 2022, MaxMem=   262144000 cpu:               0.0 elap:               0.0
 (Enter /binaries/g16/l502.exe)
 Keep R1 ints in memory in canonical form, NReq=1009981.
 FoFCou: FMM=F IPFlag=           0 FMFlag=           0 FMFlg1=           0
         NFxFlg=           0 DoJE=F BraDBF=F KetDBF=F FulRan=T
         wScrn=  0.000000 ICntrl=       600 IOpCl=  0 I1Cent=           0 NGrid=           0
         NMat0=    1 NMatS0=    595 NMatT0=    0 NMatD0=    1 NMtDS0=    0 NMtDT0=    0
 Symmetry not used in FoFCou.
 Two-electron integral symmetry not used.
 Closed shell SCF:
 Using DIIS extrapolation, IDIIS=  1040.
 NGot=   262144000 LenX=   261963332 LenY=   261961666
 Requested convergence on RMS density matrix=1.00D-08 within 128 cycles.
 Requested convergence on MAX density matrix=1.00D-06.
 Requested convergence on             energy=1.00D-06.
 No special actions if energy rises.

 Cycle   1  Pass 1  IDiag  1:
 E= -40.1691763585814    
 DIIS: error= 2.46D-04 at cycle   1 NSaved=   1.
 NSaved= 1 IEnMin= 1 EnMin= -40.1691763585814     IErMin= 1 ErrMin= 2.46D-04
 ErrMax= 2.46D-04  0.00D+00 EMaxC= 1.00D-01 BMatC= 1.05D-06 BMatP= 1.05D-06
 IDIUse=3 WtCom= 9.98D-01 WtEn= 2.46D-03
 Coeff-Com:  0.100D+01
 Coeff-En:   0.100D+01
 Coeff:      0.100D+01
 Gap=     0.979 Goal=   None    Shift=    0.000
 RMSDP=3.63D-05 MaxDP=3.96D-04              OVMax= 3.41D-04

 Cycle   2  Pass 1  IDiag  1:
 E= -40.1691774933700     Delta-E=       -0.000001134789 Rises=F Damp=F
 DIIS: error= 7.03D-05 at cycle   2 NSaved=   2.
 NSaved= 2 IEnMin= 2 EnMin= -40.1691774933700     IErMin= 2 ErrMin= 7.03D-05
 ErrMax= 7.03D-05  0.00D+00 EMaxC= 1.00D-01 BMatC= 7.33D-08 BMatP= 1.05D-06
 IDIUse=1 WtCom= 1.00D+00 WtEn= 0.00D+00
 Coeff-Com:  0.374D-02 0.996D+00
 Coeff:      0.374D-02 0.996D+00
 Gap=     0.732 Goal=   None    Shift=    0.000
 RMSDP=8.05D-06 MaxDP=1.53D-04 DE=-1.13D-06 OVMax= 1.07D-04

 Cycle   3  Pass 1  IDiag  1:
 E= -40.1691775622292     Delta-E=       -0.000000068859 Rises=F Damp=F
 DIIS: error= 1.30D-05 at cycle   3 NSaved=   3.
 NSaved= 3 IEnMin= 3 EnMin= -40.1691775622292     IErMin= 3 ErrMin= 1.30D-05
 ErrMax= 1.30D-05  0.00D+00 EMaxC= 1.00D-01 BMatC= 6.96D-09 BMatP= 7.33D-08
 IDIUse=1 WtCom= 1.00D+00 WtEn= 0.00D+00
 Coeff-Com: -0.539D-01 0.193D+00 0.861D+00
 Coeff:     -0.539D-01 0.193D+00 0.861D+00
 Gap=     0.732 Goal=   None    Shift=    0.000
 RMSDP=2.31D-06 MaxDP=2.36D-05 DE=-6.89D-08 OVMax= 3.09D-05

 Cycle   4  Pass 1  IDiag  1:
 E= -40.1691775703865     Delta-E=       -0.000000008157 Rises=F Damp=F
 DIIS: error= 1.72D-06 at cycle   4 NSaved=   4.
 NSaved= 4 IEnMin= 4 EnMin= -40.1691775703865     IErMin= 4 ErrMin= 1.72D-06
 ErrMax= 1.72D-06  0.00D+00 EMaxC= 1.00D-01 BMatC= 5.88D-11 BMatP= 6.96D-09
 IDIUse=1 WtCom= 1.00D+00 WtEn= 0.00D+00
 Coeff-Com:  0.101D-01-0.509D-01-0.192D+00 0.123D+01
 Coeff:      0.101D-01-0.509D-01-0.192D+00 0.123D+01
 Gap=     0.732 Goal=   None    Shift=    0.000
 RMSDP=3.54D-07 MaxDP=3.23D-06 DE=-8.16D-09 OVMax= 4.24D-06

 Cycle   5  Pass 1  IDiag  1:
 E= -40.1691775705052     Delta-E=       -0.000000000119 Rises=F Damp=F
 DIIS: error= 2.33D-07 at cycle   5 NSaved=   5.
 NSaved= 5 IEnMin= 5 EnMin= -40.1691775705052     IErMin= 5 ErrMin= 2.33D-07
 ErrMax= 2.33D-07  0.00D+00 EMaxC= 1.00D-01 BMatC= 7.27D-13 BMatP= 5.88D-11
 IDIUse=1 WtCom= 1.00D+00 WtEn= 0.00D+00
 Coeff-Com: -0.122D-02 0.748D-02 0.232D-01-0.223D+00 0.119D+01
 Coeff:     -0.122D-02 0.748D-02 0.232D-01-0.223D+00 0.119D+01
 Gap=     0.732 Goal=   None    Shift=    0.000
 RMSDP=5.84D-08 MaxDP=4.01D-07 DE=-1.19D-10 OVMax= 5.43D-07

 Cycle   6  Pass 1  IDiag  1:
 E= -40.1691775705068     Delta-E=       -0.000000000002 Rises=F Damp=F
 DIIS: error= 2.30D-08 at cycle   6 NSaved=   6.
 NSaved= 6 IEnMin= 6 EnMin= -40.1691775705068     IErMin= 6 ErrMin= 2.30D-08
 ErrMax= 2.30D-08  0.00D+00 EMaxC= 1.00D-01 BMatC= 1.62D-14 BMatP= 7.27D-13
 IDIUse=1 WtCom= 1.00D+00 WtEn= 0.00D+00
 Coeff-Com: -0.290D-04 0.522D-04 0.161D-03 0.603D-02-0.149D+00 0.114D+01
 Coeff:     -0.290D-04 0.522D-04 0.161D-03 0.603D-02-0.149D+00 0.114D+01
 Gap=     0.732 Goal=   None    Shift=    0.000
 RMSDP=1.03D-08 MaxDP=7.98D-08 DE=-1.57D-12 OVMax= 1.00D-07

 Cycle   7  Pass 1  IDiag  1:
 E= -40.1691775705070     Delta-E=       -0.000000000000 Rises=F Damp=F
 DIIS: error= 4.49D-09 at cycle   7 NSaved=   7.
 NSaved= 7 IEnMin= 7 EnMin= -40.1691775705070     IErMin= 7 ErrMin= 4.49D-09
 ErrMax= 4.49D-09  0.00D+00 EMaxC= 1.00D-01 BMatC= 6.14D-16 BMatP= 1.62D-14
 IDIUse=1 WtCom= 1.00D+00 WtEn= 0.00D+00
 Coeff-Com:  0.503D-04-0.266D-03-0.951D-03 0.706D-02-0.176D-01-0.193D+00
 Coeff-Com:  0.120D+01
 Coeff:      0.503D-04-0.266D-03-0.951D-03 0.706D-02-0.176D-01-0.193D+00
 Coeff:      0.120D+01
 Gap=     0.732 Goal=   None    Shift=    0.000
 RMSDP=1.98D-09 MaxDP=2.25D-08 DE=-1.99D-13 OVMax= 2.08D-08

 SCF Done:  E(RHF) =  -40.1691775705     A.U. after    7 cycles
            NFock=  7  Conv=0.20D-08     -V/T= 2.0075
 KE= 3.987081343467D+01 PE=-1.195151569436D+02 EE= 2.603651415007D+01
 Leave Link  502 at Mon Sep  5 10:35:20 2022, MaxMem=   262144000 cpu:               0.1 elap:               0.1
 (Enter /binaries/g16/l701.exe)
 ... and contract with generalized density number  0.
 Compute integral first derivatives.
   1 Symmetry operations used in ECPInt.
 ECPInt:  NShTT=     171 NPrTT=     553 LenC2=     172 LenP2D=     539.
 LDataN:  DoStor=T MaxTD1= 5 Len=  102
 Leave Link  701 at Mon Sep  5 10:35:20 2022, MaxMem=   262144000 cpu:               0.0 elap:               0.0
 (Enter /binaries/g16/l702.exe)
 L702 exits ... SP integral derivatives will be done elsewhere.
 Leave Link  702 at Mon Sep  5 10:35:20 2022, MaxMem=   262144000 cpu:               0.0 elap:               0.0
 (Enter /binaries/g16/l703.exe)
 Integral derivatives from FoFJK, PRISM(SPDF).
 Compute integral first derivatives, UseDBF=F ICtDFT=           0.
 Calling FoFJK, ICntrl=      2127 FMM=F ISym2X=0 I1Cent= 0 IOpClX= 0 NMat=1 NMatS=1 NMatT=0.
 FoFJK:  IHMeth= 1 ICntrl=    2127 DoSepK=F KAlg= 0 I1Cent=           0 FoldK=F
 IRaf=         0 NMat=       1 IRICut=       1 DoRegI=T DoRafI=F ISym2E= 0 IDoP0=0 IntGTp=1.
 FoFCou: FMM=F IPFlag=           0 FMFlag=      100000 FMFlg1=         800
         NFxFlg=           0 DoJE=F BraDBF=F KetDBF=F FulRan=T
         wScrn=  0.000000 ICntrl=      2127 IOpCl=  0 I1Cent=           0 NGrid=           0
         NMat0=    1 NMatS0=      1 NMatT0=    0 NMatD0=    1 NMtDS0=    0 NMtDT0=    0
 Symmetry not used in FoFCou.
 Leave Link  703 at Mon Sep  5 10:35:20 2022, MaxMem=   262144000 cpu:               0.1 elap:               0.1
 (Enter /binaries/g16/l716.exe)
 Dipole        = 3.58074175D-05 4.51596225D-07 2.41012899D-05
 ***** Axes restored to original set *****
 -------------------------------------------------------------------
 Center     Atomic                   Forces (Hartrees/Bohr)
 Number     Number              X              Y              Z
 -------------------------------------------------------------------
      1        6          -0.000001841   -0.000006933   -0.000078688
      2        1          -0.000001371    0.000001668    0.000023498
      3        1           0.000001674   -0.000000470    0.000015643
      4        1           0.000001025    0.000005930    0.000020273
      5        1           0.000000513   -0.000000195    0.000019274
 -------------------------------------------------------------------
 Cartesian Forces:  Max     0.000078688 RMS     0.000022901
 Leave Link  716 at Mon Sep  5 10:35:20 2022, MaxMem=   262144000 cpu:               0.0 elap:               0.0
 (Enter /binaries/g16/l103.exe)

 GradGradGradGradGradGradGradGradGradGradGradGradGradGradGradGradGradGrad
 Berny optimization.
 Using GEDIIS/GDIIS optimizer.
 FormGI is forming the generalized inverse of G from B-inverse, IUseBI=4.
 Internal  Forces:  Max     0.000017705 RMS     0.000009860
 Search for a local minimum.
 Step number   3 out of a maximum of   24
 All quantities printed in internal units (Hartrees-Bohrs-Radians)
 RMS Force = .98595D-05 SwitMx=.10000D-02 MixMth= 2
 Mixed Optimization -- En-DIIS/RFO-DIIS
 Swapping is turned off.
 Update second derivatives using D2CorX and points    1    2    3
 DE= -5.43D-06 DEPred=-5.11D-06 R= 1.06D+00
 TightC=F SS=  1.41D+00  RLast= 5.74D-03 DXNew= 5.0454D-01 1.7222D-02
 Trust test= 1.06D+00 RLast= 5.74D-03 DXMaxT set to 3.00D-01
 The second derivative matrix:
                          R1        R2        R3        R4        A1
           R1           0.37449
           R2           0.00338   0.37998
           R3           0.00090   0.00186   0.36611
           R4           0.00234   0.00353   0.00102   0.37478
           A1          -0.00859  -0.00888  -0.00701  -0.00859   0.15891
           A2           0.00858   0.00879   0.00705   0.00857   0.00131
           A3          -0.00041  -0.00042  -0.00034  -0.00041  -0.00022
           A4           0.00046   0.00055   0.00032   0.00046  -0.00002
           A5          -0.00480  -0.00485  -0.00400  -0.00479  -0.00114
           A6           0.00477   0.00483   0.00398   0.00476   0.00116
           D1           0.00050   0.00054   0.00038   0.00050  -0.00001
           D2           0.00602   0.00637   0.00478   0.00603  -0.00000
           D3           0.00558   0.00587   0.00447   0.00559   0.00005
           D4          -0.00043  -0.00050  -0.00031  -0.00044   0.00005
                          A2        A3        A4        A5        A6
           A2           0.15845
           A3           0.00023   0.16000
           A4           0.00004  -0.00000   0.15998
           A5           0.00130  -0.00014  -0.00003   0.15902
           A6          -0.00133   0.00013   0.00004   0.00099   0.15900
           D1           0.00000   0.00001  -0.00000   0.00001  -0.00001
           D2          -0.00009   0.00013  -0.00002   0.00031  -0.00033
           D3          -0.00016   0.00014  -0.00001   0.00034  -0.00037
           D4          -0.00006   0.00001   0.00001   0.00004  -0.00004
                          D1        D2        D3        D4
           D1           0.00434
           D2           0.00002   0.00544
           D3           0.00002   0.00042   0.00539
           D4          -0.00000  -0.00003  -0.00002   0.00500
 ITU=  1  1  0
     Eigenvalues ---    0.05221   0.05877   0.08728   0.15987   0.16000
     Eigenvalues ---    0.36581   0.37229   0.37336   0.38391
 En-DIIS/RFO-DIIS/Sim-DIIS IScMMF=       -3 using points:     3    2
 RFO step:  Lambda=-1.68796665D-08.
 NNeg= 0 NGDIIS= 2 SimSw=  2.50D-03 Rises=F DC= -5.43D-06 SmlDif=  1.00D-05
 NRisDI= 0 DoIntr=F SqrtH=F CThrHd= 10.0 CDAdj=  3.0
 RMS Error=  0.1402055667D-03 NUsed= 2 OKEnD=F EnDIS=F
 InvSVX:  RCond= 8.24D-06 Info=           0 Equed=N FErr=  9.70D-16 BErr=  1.16D-17
 DidBck=F Rises=F RFO-DIIS coefs:    1.03749   -0.03749
 Iteration  1 RMS(Cart)=  0.00007548 RMS(Int)=  0.00000002
 Iteration  2 RMS(Cart)=  0.00000001 RMS(Int)=  0.00000002
 ITry= 1 IFail=0 DXMaxC= 1.56D-04 DCOld= 1.00D+10 DXMaxT= 3.00D-01 DXLimC= 3.00D+00 Rises=F
 Variable       Old X    -DE/DX   Delta X   Delta X   Delta X     New X
                                 (Linear)    (Quad)   (Total)
    R1        2.05931  -0.00000  -0.00010   0.00009  -0.00001   2.05930
    R2        2.05925   0.00001  -0.00010   0.00014   0.00003   2.05928
    R3        2.05935  -0.00001  -0.00008   0.00004  -0.00004   2.05931
    R4        2.05930  -0.00000  -0.00010   0.00010  -0.00000   2.05930
    A1        1.91082  -0.00001  -0.00002  -0.00013  -0.00015   1.91067
    A2        1.91041   0.00001   0.00003   0.00015   0.00018   1.91059
    A3        1.91063  -0.00000  -0.00001   0.00001   0.00000   1.91063
    A4        1.91068  -0.00000   0.00000  -0.00004  -0.00004   1.91064
    A5        1.91080  -0.00001  -0.00003  -0.00011  -0.00013   1.91066
    A6        1.91046   0.00001   0.00003   0.00012   0.00014   1.91060
    D1       -2.09452   0.00000   0.00001   0.00009   0.00010  -2.09442
    D2        2.09473  -0.00002  -0.00005  -0.00022  -0.00027   2.09446
    D3       -2.09402  -0.00002  -0.00005  -0.00026  -0.00031  -2.09432
    D4        2.09444  -0.00000   0.00000  -0.00004  -0.00004   2.09440
         Item               Value     Threshold  Converged?
 Maximum Force            0.000018     0.000450     YES
 RMS     Force            0.000010     0.000300     YES
 Maximum Displacement     0.000156     0.001800     YES
 RMS     Displacement     0.000075     0.001200     YES
 Predicted change in Energy=-8.440130D-09
 Optimization completed.
    -- Stationary point found.
                           ----------------------------
                           !   Optimized Parameters   !
                           ! (Angstroms and Degrees)  !
 --------------------------                            --------------------------
 ! Name  Definition              Value          Derivative Info.                !
 --------------------------------------------------------------------------------
 ! R1    R(1,2)                  1.0897         -DE/DX =    0.0                 !
 ! R2    R(1,3)                  1.0897         -DE/DX =    0.0                 !
 ! R3    R(1,4)                  1.0898         -DE/DX =    0.0                 !
 ! R4    R(1,5)                  1.0897         -DE/DX =    0.0                 !
 ! A1    A(2,1,3)              109.4821         -DE/DX =    0.0                 !
 ! A2    A(2,1,4)              109.4587         -DE/DX =    0.0                 !
 ! A3    A(2,1,5)              109.471          -DE/DX =    0.0                 !
 ! A4    A(3,1,4)              109.4738         -DE/DX =    0.0                 !
 ! A5    A(3,1,5)              109.4807         -DE/DX =    0.0                 !
 ! A6    A(4,1,5)              109.4611         -DE/DX =    0.0                 !
 ! D1    D(2,1,4,3)           -120.0072         -DE/DX =    0.0                 !
 ! D2    D(2,1,5,3)            120.019          -DE/DX =    0.0                 !
 ! D3    D(2,1,5,4)           -119.9783         -DE/DX =    0.0                 !
 ! D4    D(3,1,5,4)            120.0027         -DE/DX =    0.0                 !
 --------------------------------------------------------------------------------
 Lowest energy point so far.  Saving SCF results.
 Largest change from initial coordinates is atom    3       0.653 Angstoms.
 GradGradGradGradGradGradGradGradGradGradGradGradGradGradGradGradGradGrad

 Leave Link  103 at Mon Sep  5 10:35:20 2022, MaxMem=   262144000 cpu:               0.0 elap:               0.0
 (Enter /binaries/g16/l202.exe)
                          Input orientation:                          
 ---------------------------------------------------------------------
 Center     Atomic      Atomic             Coordinates (Angstroms)
 Number     Number       Type             X           Y           Z
 ---------------------------------------------------------------------
      1          6           0        4.291823    3.658809   -0.001697
      2          1           0        4.655070    2.631395   -0.000740
      3          1           0        4.656024    4.173878    0.886854
      4          1           0        4.654095    4.171112   -0.892699
      5          1           0        3.202088    3.658805   -0.000718
 ---------------------------------------------------------------------
                    Distance matrix (angstroms):
                    1          2          3          4          5
     1  C    0.000000
     2  H    1.089738   0.000000
     3  H    1.089707   1.779629   0.000000
     4  H    1.089762   1.779416   1.779556   0.000000
     5  H    1.089735   1.779530   1.779611   1.779441   0.000000
 Stoichiometry    CH4
 Framework group  C1[X(CH4)]
 Deg. of freedom     9
 Full point group                 C1      NOp   1
 RotChk:  IX=0 Diff= 7.01D-12
 Largest Abelian subgroup         C1      NOp   1
 Largest concise Abelian subgroup C1      NOp   1
                         Standard orientation:                         
 ---------------------------------------------------------------------
 Center     Atomic      Atomic             Coordinates (Angstroms)
 Number     Number       Type             X           Y           Z
 ---------------------------------------------------------------------
      1          6           0       -0.000043   -0.000000   -0.000029
      2          1           0        0.492008   -0.781177   -0.578974
      3          1           0       -1.080744   -0.107377   -0.089561
      4          1           0        0.288278   -0.088090    1.047201
      5          1           0        0.300715    0.976645   -0.378490
 ---------------------------------------------------------------------
 Rotational constants (GHZ):         158.3635767         158.3510949         158.3387822
 Leave Link  202 at Mon Sep  5 10:35:20 2022, MaxMem=   262144000 cpu:               0.0 elap:               0.0
 (Enter /binaries/g16/l601.exe)
 Copying SCF densities to generalized density rwf, IOpCl= 0 IROHF=0.

 **********************************************************************

            Population analysis using the SCF Density.

 **********************************************************************

 Orbital symmetries:
       Occupied  (A) (A) (A) (A) (A)
       Virtual   (A) (A) (A) (A) (A) (A) (A) (A) (A) (A) (A) (A)
                 (A) (A) (A) (A) (A) (A) (A) (A) (A) (A) (A) (A)
                 (A) (A) (A) (A) (A)
 The electronic state is 1-A.
 Alpha  occ. eigenvalues --  -11.21730  -0.93277  -0.54523  -0.54520  -0.54516
 Alpha virt. eigenvalues --    0.18679   0.27429   0.27429   0.27429   0.59303
 Alpha virt. eigenvalues --    0.59305   0.59308   0.87175   0.92825   0.92827
 Alpha virt. eigenvalues --    0.92830   1.01184   1.33863   1.33864   1.80919
 Alpha virt. eigenvalues --    1.80922   1.80928   2.04478   2.04484   2.04488
 Alpha virt. eigenvalues --    2.44489   2.44502   2.44521   2.85722   2.85724
 Alpha virt. eigenvalues --    2.95508   3.27223   3.27227   3.27231
          Condensed to atoms (all electrons):
               1          2          3          4          5
     1  C    4.498301   0.412427   0.412438   0.412420   0.412428
     2  H    0.412427   0.617512  -0.022306  -0.022323  -0.022313
     3  H    0.412438  -0.022306   0.617463  -0.022311  -0.022308
     4  H    0.412420  -0.022323  -0.022311   0.617549  -0.022320
     5  H    0.412428  -0.022313  -0.022308  -0.022320   0.617510
 Mulliken charges:
               1
     1  C   -0.148014
     2  H    0.037002
     3  H    0.037024
     4  H    0.036985
     5  H    0.037003
 Sum of Mulliken charges =  -0.00000
 Mulliken charges with hydrogens summed into heavy atoms:
               1
     1  C   -0.000000
 Electronic spatial extent (au):  <R**2>=             35.6230
 Charge=             -0.0000 electrons
 Dipole moment (field-independent basis, Debye):
    X=              0.0001    Y=              0.0000    Z=              0.0001  Tot=              0.0001
 Quadrupole moment (field-independent basis, Debye-Ang):
   XX=             -8.3657   YY=             -8.3662   ZZ=             -8.3667
   XY=              0.0000   XZ=             -0.0000   YZ=              0.0000
 Traceless Quadrupole moment (field-independent basis, Debye-Ang):
   XX=              0.0005   YY=             -0.0000   ZZ=             -0.0005
   XY=              0.0000   XZ=             -0.0000   YZ=              0.0000
 Octapole moment (field-independent basis, Debye-Ang**2):
  XXX=             -0.6763  YYY=              0.2805  ZZZ=              0.5568  XYY=              0.3573
  XXY=             -0.1446  XXZ=             -0.1188  XZZ=              0.3192  YZZ=             -0.1358
  YYZ=             -0.4378  XYZ=              0.0461
 Hexadecapole moment (field-independent basis, Debye-Ang**3):
 XXXX=            -15.1428 YYYY=            -15.3189 ZZZZ=            -15.2587 XXXY=              0.0758
 XXXZ=              0.0666 YYYX=              0.0530 YYYZ=             -0.0873 ZZZX=              0.2490
 ZZZY=             -0.0027 XXYY=             -5.3093 XXZZ=             -5.3698 YYZZ=             -5.1942
 XXYZ=              0.0901 YYXZ=             -0.3157 ZZXY=             -0.1286
 N-N= 1.343865178836D+01 E-N=-1.195151569601D+02  KE= 3.987081343467D+01
 No NMR shielding tensors so no spin-rotation constants.
 Leave Link  601 at Mon Sep  5 10:35:20 2022, MaxMem=   262144000 cpu:               0.0 elap:               0.0
 (Enter /binaries/g16/l9999.exe)
 Unable to Open any file for archive entry.
 1\1\GINC-WEB\FOpt\RHF\def2SVP\C1H4\CALCUS\05-Sep-2022\0\\#p opt HF/Def
 2SVP\\File created by ccinput\\0,1\C,4.291823411,3.6588092974,-0.00169
 65778\H,4.6550696385,2.631395003,-0.0007400621\H,4.6560239461,4.173878
 2395,0.8868541041\H,4.654094599,4.1711124417,-0.8926989913\H,3.2020884
 054,3.6588050185,-0.0007184728\\Version=ES64L-G16RevC.01\State=1-A\HF=
 -40.1691776\RMSD=1.983e-09\RMSF=2.290e-05\Dipole=-0.000002,-0.000004,-
 0.0000429\Quadrupole=-0.0000154,-0.0000435,0.0000589,-0.0000141,0.0001
 88,0.0003385\PG=C01 [X(C1H4)]\\@
 The archive entry for this job was punched.


 SUCCESS-- IF YOU HAVE TRIED TO DO SOMETHING AND FAILED
           YOU ARE BETTER OFF THAN IF YOU HAD TRIED TO DO
           NOTHING AND SUCCEEDED.

                   -- FROM THE BACK OF A SUGAR PACKET
 Job cpu time:       0 days  0 hours  0 minutes  1.7 seconds.
 Elapsed time:       0 days  0 hours  0 minutes  1.6 seconds.
 File lengths (MBytes):  RWF=      6 Int=      0 D2E=      0 Chk=      1 Scr=      1
 Normal termination of Gaussian 16 at Mon Sep  5 10:35:20 2022.
