
                                 *****************
                                 * O   R   C   A *
                                 *****************

                                            #,                                       
                                            ###                                      
                                            ####                                     
                                            #####                                    
                                            ######                                   
                                           ########,                                 
                                     ,,################,,,,,                         
                               ,,#################################,,                 
                          ,,##########################################,,             
                       ,#########################################, ''#####,          
                    ,#############################################,,   '####,        
                  ,##################################################,,,,####,       
                ,###########''''           ''''###############################       
              ,#####''   ,,,,##########,,,,          '''####'''          '####       
            ,##' ,,,,###########################,,,                        '##       
           ' ,,###''''                  '''############,,,                           
         ,,##''                                '''############,,,,        ,,,,,,###''
      ,#''                                            '''#######################'''  
     '                                                          ''''####''''         
             ,#######,   #######,   ,#######,      ##                                
            ,#'     '#,  ##    ##  ,#'     '#,    #''#        ######   ,####,        
            ##       ##  ##   ,#'  ##            #'  '#       #        #'  '#        
            ##       ##  #######   ##           ,######,      #####,   #    #        
            '#,     ,#'  ##    ##  '#,     ,#' ,#      #,         ##   #,  ,#        
             '#######'   ##     ##  '#######'  #'      '#     #####' # '####'        



                  #######################################################
                  #                        -***-                        #
                  #          Department of theory and spectroscopy      #
                  #    Directorship and core code : Frank Neese         #
                  #        Max Planck Institute fuer Kohlenforschung    #
                  #                Kaiser Wilhelm Platz 1               #
                  #                 D-45470 Muelheim/Ruhr               #
                  #                      Germany                        #
                  #                                                     #
                  #                  All rights reserved                #
                  #                        -***-                        #
                  #######################################################


                         Program Version 5.0.3 -  RELEASE  -


 With contributions from (in alphabetic order):
   Daniel Aravena         : Magnetic Suceptibility
   Michael Atanasov       : Ab Initio Ligand Field Theory (pilot matlab implementation)
   Alexander A. Auer      : GIAO ZORA, VPT2 properties, NMR spectrum
   Ute Becker             : Parallelization
   Giovanni Bistoni       : ED, misc. LED, open-shell LED, HFLD
   Martin Brehm           : Molecular dynamics
   Dmytro Bykov           : SCF Hessian
   Vijay G. Chilkuri      : MRCI spin determinant printing, contributions to CSF-ICE
   Dipayan Datta          : RHF DLPNO-CCSD density
   Achintya Kumar Dutta   : EOM-CC, STEOM-CC
   Dmitry Ganyushin       : Spin-Orbit,Spin-Spin,Magnetic field MRCI
   Miquel Garcia          : C-PCM and meta-GGA Hessian, CC/C-PCM, Gaussian charge scheme
   Yang Guo               : DLPNO-NEVPT2, F12-NEVPT2, CIM, IAO-localization
   Andreas Hansen         : Spin unrestricted coupled pair/coupled cluster methods
   Benjamin Helmich-Paris : MC-RPA, TRAH-SCF, COSX integrals
   Lee Huntington         : MR-EOM, pCC
   Robert Izsak           : Overlap fitted RIJCOSX, COSX-SCS-MP3, EOM
   Marcus Kettner         : VPT2
   Christian Kollmar      : KDIIS, OOCD, Brueckner-CCSD(T), CCSD density, CASPT2, CASPT2-K
   Simone Kossmann        : Meta GGA functionals, TD-DFT gradient, OOMP2, MP2 Hessian
   Martin Krupicka        : Initial AUTO-CI
   Lucas Lang             : DCDCAS
   Marvin Lechner         : AUTO-CI (C++ implementation), FIC-MRCC
   Dagmar Lenk            : GEPOL surface, SMD
   Dimitrios Liakos       : Extrapolation schemes; Compound Job, initial MDCI parallelization
   Dimitrios Manganas     : Further ROCIS development; embedding schemes
   Dimitrios Pantazis     : SARC Basis sets
   Anastasios Papadopoulos: AUTO-CI, single reference methods and gradients
   Taras Petrenko         : DFT Hessian,TD-DFT gradient, ASA, ECA, R-Raman, ABS, FL, XAS/XES, NRVS
   Peter Pinski           : DLPNO-MP2, DLPNO-MP2 Gradient
   Christoph Reimann      : Effective Core Potentials
   Marius Retegan         : Local ZFS, SOC
   Christoph Riplinger    : Optimizer, TS searches, QM/MM, DLPNO-CCSD(T), (RO)-DLPNO pert. Triples
   Tobias Risthaus        : Range-separated hybrids, TD-DFT gradient, RPA, STAB
   Michael Roemelt        : Original ROCIS implementation
   Masaaki Saitow         : Open-shell DLPNO-CCSD energy and density
   Barbara Sandhoefer     : DKH picture change effects
   Avijit Sen             : IP-ROCIS
   Kantharuban Sivalingam : CASSCF convergence, NEVPT2, FIC-MRCI
   Bernardo de Souza      : ESD, SOC TD-DFT
   Georgi Stoychev        : AutoAux, RI-MP2 NMR, DLPNO-MP2 response
   Willem Van den Heuvel  : Paramagnetic NMR
   Boris Wezisla          : Elementary symmetry handling
   Frank Wennmohs         : Technical directorship


 We gratefully acknowledge several colleagues who have allowed us to
 interface, adapt or use parts of their codes:
   Stefan Grimme, W. Hujo, H. Kruse, P. Pracht,  : VdW corrections, initial TS optimization,
                  C. Bannwarth, S. Ehlert          DFT functionals, gCP, sTDA/sTD-DF
   Ed Valeev, F. Pavosevic, A. Kumar             : LibInt (2-el integral package), F12 methods
   Garnet Chan, S. Sharma, J. Yang, R. Olivares  : DMRG
   Ulf Ekstrom                                   : XCFun DFT Library
   Mihaly Kallay                                 : mrcc  (arbitrary order and MRCC methods)
   Jiri Pittner, Ondrej Demel                    : Mk-CCSD
   Frank Weinhold                                : gennbo (NPA and NBO analysis)
   Christopher J. Cramer and Donald G. Truhlar   : smd solvation model
   Lars Goerigk                                  : TD-DFT with DH, B97 family of functionals
   V. Asgeirsson, H. Jonsson                     : NEB implementation
   FAccTs GmbH                                   : IRC, NEB, NEB-TS, DLPNO-Multilevel, CI-OPT
                                                   MM, QMMM, 2- and 3-layer-ONIOM, Crystal-QMMM,
                                                   LR-CPCM, SF, NACMEs, symmetry and pop. for TD-DFT,
                                                   nearIR, NL-DFT gradient (VV10), updates on ESD,
                                                   ML-optimized integration grids
   S Lehtola, MJT Oliveira, MAL Marques          : LibXC Library
   Liviu Ungur et al                             : ANISO software


 Your calculation uses the libint2 library for the computation of 2-el integrals
 For citations please refer to: http://libint.valeyev.net

 Your ORCA version has been built with support for libXC version: 5.1.0
 For citations please refer to: https://tddft.org/programs/libxc/

 This ORCA versions uses:
   CBLAS   interface :  Fast vector & matrix operations
   LAPACKE interface :  Fast linear algebra routines
   SCALAPACK package :  Parallel linear algebra routines
   Shared memory     :  Shared parallel matrices
   BLAS/LAPACK       :  OpenBLAS 0.3.15  USE64BITINT DYNAMIC_ARCH NO_AFFINITY Zen SINGLE_THREADED
        Core in use  :  Zen
   Copyright (c) 2011-2014, The OpenBLAS Project


Your calculation utilizes the semiempirical GFN2-xTB method
Please cite in your paper:
C. Bannwarth, Ehlert S., S. Grimme,  J. Chem. Theory Comput., 15, (2019), 1652.
   

================================================================================

cite the ECPs for I  [Def2-ECP] as follows:
Ce-Yb(ecp-28): M. Dolg, H. Stoll, H.Preuss, J. Chem. Phys., 1989, 90, 1730-1734.
Y-Cd(ecp-28), Hf-Hg(ecp-46): D. Andrae,U. Haeussermann, M. Dolg, H. Stoll, H. Preuss, Theor. Chim. Acta, 1990, 77, 123-141.
In-Sb(ecp-28), Tl-Bi(ecp-46): B. Metz, H. Stoll, M. Dolg, J. Chem. Phys., 2000, 113, 2563-2569.
Te-Xe(ecp-28), Po-Rn(ecp-46): K. A. Peterson, D. Figgen, E. Goll, H. Stoll, M. Dolg, J. Chem. Phys., 2003, 119, 11113-11123.
Rb(ecp-28), Cs(ecp-46): T. Leininger, A. Nicklass, W. Kuechle, H. Stoll, M. Dolg, A. Bergner, Chem. Phys. Lett., 1996, 255, 274-280.
Sr(ecp-28), Ba(ecp-46): M. Kaupp, P. V. Schleyer, H. Stoll and H. Preuss, J. Chem. Phys., 1991, 94, 1360-1366.
La(ecp-46): M. Dolg, H. Stoll, A. Savin, H. Preuss, Theor. Chim. Acta, 1989, 75, 173-194.
Lu(ecp-28): X. Cao, M. Dolg, J. Chem. Phys., 2001, 115, 7348-7355.

ECP parameters for I  [Def2-ECP] have been obtained from:
TURBOMOLE (7.0.2)

================================================================================
                                        WARNINGS
                       Please study these warnings very carefully!
================================================================================


WARNING: Geometry Optimization
  ===> : Switching off AutoStart
         For restart on a previous wavefunction, please use MOREAD

WARNING: Found dipole moment calculation with XTB calculation
  ===> : Switching off dipole moment calculation


WARNING: TRAH-SCF for XTB is not implemented!
  ===> : Turning TRAH off!

================================================================================
                                       INPUT FILE
================================================================================
NAME = calc.inp
|  1> !OPTTS xtb2
|  2> *xyz 0 1
|  3> I    1.10901726  -0.19335423   0.43405561
|  4> C    0.72782145   0.22620904   2.54427883
|  5> C    1.78165416   0.57084336   3.37528522
|  6> C   -0.55347656   0.12580066   3.06245690
|  7> C    1.55284367   0.83215698   4.71589954
|  8> H    2.77870673   0.63423319   2.96375386
|  9> C   -0.78396956   0.39081899   4.40108880
| 10> H   -1.37352562  -0.15486462   2.41581319
| 11> C    0.26923665   0.74600015   5.22813428
| 12> H    2.37601979   1.10486453   5.35948677
| 13> H   -1.78504431   0.31601035   4.79966111
| 14> H    0.08886994   0.95226375   6.27260923
| 15> C   -0.59306126   0.98913483   0.00861014
| 16> C   -1.57195748   0.49812106  -0.83169508
| 17> C   -0.69700795   2.23741286   0.59128724
| 18> C   -2.68431992   1.28016266  -1.09393056
| 19> H   -1.45995895  -0.47292459  -1.28796193
| 20> C   -1.81277778   3.01199462   0.32206765
| 21> H    0.08019116   2.59983331   1.24733057
| 22> C   -2.80531917   2.53412096  -0.51785052
| 23> H   -3.45635192   0.90621102  -1.74945509
| 24> H   -1.90159413   3.99192756   0.76654237
| 25> H   -3.67314773   3.14167986  -0.72637934
| 26> O    1.13663322  -0.13950208  -1.75954582
| 27> C    1.17857756  -1.16183062  -2.60301970
| 28> C    1.21633111  -2.49355782  -2.18497126
| 29> C    1.16240995  -0.89641187  -3.97777382
| 30> C    1.23938569  -3.52139734  -3.10672497
| 31> H    1.23351304  -2.70312559  -1.12288345
| 32> C    1.18428978  -1.93102239  -4.88982335
| 33> H    1.13185700   0.13299650  -4.30248576
| 34> C    1.22230239  -3.24891911  -4.46372085
| 35> H    1.27039515  -4.54519154  -2.76054504
| 36> H    1.17148952  -1.70600352  -5.94716446
| 37> H    1.23996698  -4.05469094  -5.18243030
| 38> *
| 39> %pal
| 40> nprocs 4
| 41> endd                         ****END OF INPUT****
================================================================================

                       *****************************
                       * Geometry Optimization Run *
                       *****************************

Geometry optimization settings:
Update method            Update   .... Bofill
Choice of coordinates    CoordSys .... Z-matrix Internals
Initial Hessian          InHess   .... Almoef's Model

Convergence Tolerances:
Energy Change            TolE     ....  5.0000e-06 Eh
Max. Gradient            TolMAXG  ....  3.0000e-04 Eh/bohr
RMS Gradient             TolRMSG  ....  1.0000e-04 Eh/bohr
Max. Displacement        TolMAXD  ....  4.0000e-03 bohr
RMS Displacement         TolRMSD  ....  2.0000e-03 bohr
Strict Convergence                ....  False
------------------------------------------------------------------------------
                        ORCA OPTIMIZATION COORDINATE SETUP
------------------------------------------------------------------------------

The optimization will be done in new redundant internal coordinates
Making redundant internal coordinates   ...  (new redundants) done
Following TS mode number                ...     0
Evaluating the initial hessian          ...  (Almloef) done
Evaluating the coordinates              ...  done
Calculating the B-matrix                .... done
Calculating the G-matrix                .... done
Diagonalizing the G-matrix              .... done
Small eigenvalue found = 3.160e-03
Small eigenvalue found = 4.251e-03
Small eigenvalue found = 9.601e-03
Small eigenvalue found = 1.207e-02
Small eigenvalue found = 2.418e-02
Small eigenvalue found = 2.703e-02
The first mode is                       ....   80
The number of degrees of freedom        ....   99

    -----------------------------------------------------------------
                    Redundant Internal Coordinates


    -----------------------------------------------------------------
         Definition                    Initial Value    Approx d2E/dq
    -----------------------------------------------------------------
      1. B(C   1,I   0)                  2.1850         0.113188   
      2. B(C   2,C   1)                  1.3856         0.634960   
      3. B(C   3,C   1)                  1.3858         0.634618   
      4. B(C   4,C   2)                  1.3849         0.636665   
      5. B(H   5,C   2)                  1.0805         0.372883   
      6. B(C   6,C   3)                  1.3839         0.638856   
      7. B(H   7,C   3)                  1.0814         0.371674   
      8. B(C   8,C   4)                  1.3847         0.637030   
      9. B(C   8,C   6)                  1.3854         0.635387   
     10. B(H   9,C   4)                  1.0799         0.373706   
     11. B(H  10,C   6)                  1.0801         0.373443   
     12. B(H  11,C   8)                  1.0798         0.373826   
     13. B(C  12,I   0)                  2.1157         0.146003   
     14. B(C  13,C  12)                  1.3804         0.647275   
     15. B(C  14,C  12)                  1.3815         0.644637   
     16. B(C  15,C  13)                  1.3848         0.636816   
     17. B(H  16,C  13)                  1.0787         0.375325   
     18. B(C  17,C  14)                  1.3847         0.637077   
     19. B(H  18,C  14)                  1.0797         0.373969   
     20. B(C  19,C  17)                  1.3853         0.635755   
     21. B(C  19,C  15)                  1.3853         0.635792   
     22. B(H  20,C  15)                  1.0796         0.374093   
     23. B(H  21,C  17)                  1.0797         0.374010   
     24. B(H  22,C  19)                  1.0797         0.373995   
     25. B(O  23,I   0)                  2.1944         0.097936   
     26. B(C  24,O  23)                  1.3260         0.707833   
     27. B(C  25,C  24)                  1.3963         0.610475   
     28. B(C  26,C  24)                  1.4002         0.601741   
     29. B(C  27,C  25)                  1.3808         0.646268   
     30. B(H  28,C  25)                  1.0827         0.369884   
     31. B(C  29,C  26)                  1.3794         0.649617   
     32. B(H  30,C  26)                  1.0798         0.373795   
     33. B(C  31,C  29)                  1.3856         0.635001   
     34. B(C  31,C  27)                  1.3842         0.638282   
     35. B(H  32,C  27)                  1.0812         0.371955   
     36. B(H  33,C  29)                  1.0811         0.372074   
     37. B(H  34,C  31)                  1.0799         0.373750   
     38. A(C   1,I   0,C  12)           86.9352         0.288257   
     39. A(C  12,I   0,O  23)           78.1939         0.280530   
     40. A(C   1,I   0,O  23)          164.3393         0.269806   
     41. A(I   0,C   1,C   2)          119.6224         0.345148   
     42. A(C   2,C   1,C   3)          119.8008         0.437768   
     43. A(I   0,C   1,C   3)          120.5655         0.345116   
     44. A(C   1,C   2,H   5)          119.2082         0.356440   
     45. A(C   4,C   2,H   5)          120.6696         0.356603   
     46. A(C   1,C   2,C   4)          120.1221         0.438022   
     47. A(C   1,C   3,H   7)          119.7602         0.356211   
     48. A(C   1,C   3,C   6)          120.1197         0.438251   
     49. A(C   6,C   3,H   7)          120.1192         0.356614   
     50. A(C   2,C   4,H   9)          119.9092         0.356736   
     51. A(C   8,C   4,H   9)          120.1230         0.356771   
     52. A(C   2,C   4,C   8)          119.9677         0.438279   
     53. A(C   3,C   6,H  10)          119.8700         0.356902   
     54. A(C   3,C   6,C   8)          119.9934         0.438347   
     55. A(C   8,C   6,H  10)          120.1361         0.356572   
     56. A(C   4,C   8,C   6)          119.9879         0.438121   
     57. A(C   6,C   8,H  11)          119.9612         0.356634   
     58. A(C   4,C   8,H  11)          120.0506         0.356790   
     59. A(C  13,C  12,C  14)          121.6552         0.440532   
     60. A(I   0,C  12,C  14)          118.7329         0.361270   
     61. A(I   0,C  12,C  13)          119.6107         0.361522   
     62. A(C  15,C  13,H  16)          120.7743         0.357013   
     63. A(C  12,C  13,H  16)          120.2687         0.358003   
     64. A(C  12,C  13,C  15)          118.9488         0.439562   
     65. A(C  12,C  14,H  18)          120.3586         0.357534   
     66. A(C  17,C  14,H  18)          120.6897         0.356818   
     67. A(C  12,C  14,C  17)          118.9517         0.439270   
     68. A(C  13,C  15,C  19)          120.1732         0.438145   
     69. A(C  19,C  15,H  20)          120.2376         0.356716   
     70. A(C  13,C  15,H  20)          119.5892         0.356813   
     71. A(C  14,C  17,C  19)          120.1494         0.438172   
     72. A(C  19,C  17,H  21)          120.2493         0.356699   
     73. A(C  14,C  17,H  21)          119.6006         0.356825   
     74. A(C  15,C  19,C  17)          120.1216         0.438013   
     75. A(C  17,C  19,H  22)          119.9264         0.356696   
     76. A(C  15,C  19,H  22)          119.9517         0.356700   
     77. A(I   0,O  23,C  24)          128.1210         0.339267   
     78. A(C  25,C  24,C  26)          118.3622         0.430540   
     79. A(O  23,C  24,C  26)          118.5554         0.439267   
     80. A(O  23,C  24,C  25)          123.0740         0.440411   
     81. A(C  27,C  25,H  28)          120.6966         0.357021   
     82. A(C  24,C  25,H  28)          118.6025         0.353586   
     83. A(C  24,C  25,C  27)          120.6997         0.436104   
     84. A(C  29,C  26,H  30)          121.1073         0.357974   
     85. A(C  24,C  26,H  30)          118.4414         0.353353   
     86. A(C  24,C  26,C  29)          120.4513         0.435378   
     87. A(C  31,C  27,H  32)          120.0432         0.356605   
     88. A(C  25,C  27,H  32)          119.4462         0.357359   
     89. A(C  25,C  27,C  31)          120.5106         0.439621   
     90. A(C  31,C  29,H  33)          119.9380         0.356313   
     91. A(C  26,C  29,H  33)          119.3646         0.357693   
     92. A(C  26,C  29,C  31)          120.6974         0.439622   
     93. A(C  29,C  31,H  34)          120.3642         0.356585   
     94. A(C  27,C  31,H  34)          120.3572         0.356897   
     95. A(C  27,C  31,C  29)          119.2785         0.438228   
     96. D(C   2,C   1,I   0,C  12)   -135.5685         0.001657   
     97. D(C   2,C   1,I   0,O  23)   -117.3768         0.001657   
     98. D(C   3,C   1,I   0,C  12)     45.6575         0.001657   
     99. D(C   3,C   1,I   0,O  23)     63.8492         0.001657   
    100. D(C   4,C   2,C   1,I   0)   -179.6665         0.027983   
    101. D(H   5,C   2,C   1,C   3)    179.2357         0.027983   
    102. D(C   4,C   2,C   1,C   3)     -0.8829         0.027983   
    103. D(H   5,C   2,C   1,I   0)      0.4522         0.027983   
    104. D(H   7,C   3,C   1,C   2)   -179.2632         0.027951   
    105. D(H   7,C   3,C   1,I   0)     -0.4913         0.027951   
    106. D(C   6,C   3,C   1,C   2)      1.0868         0.027951   
    107. D(C   6,C   3,C   1,I   0)    179.8586         0.027951   
    108. D(H   9,C   4,C   2,C   1)   -179.7205         0.028143   
    109. D(C   8,C   4,C   2,H   5)   -179.9696         0.028143   
    110. D(C   8,C   4,C   2,C   1)      0.1508         0.028143   
    111. D(H   9,C   4,C   2,H   5)      0.1590         0.028143   
    112. D(H  10,C   6,C   3,H   7)      0.0530         0.028350   
    113. D(H  10,C   6,C   3,C   1)    179.7018         0.028350   
    114. D(C   8,C   6,C   3,H   7)    179.7929         0.028350   
    115. D(C   8,C   6,C   3,C   1)     -0.5582         0.028350   
    116. D(H  11,C   8,C   6,H  10)     -0.2351         0.028023   
    117. D(C   4,C   8,C   6,H  10)    179.5622         0.028023   
    118. D(C   4,C   8,C   6,C   3)     -0.1770         0.028023   
    119. D(H  11,C   8,C   4,H   9)      0.0486         0.028177   
    120. D(H  11,C   8,C   4,C   2)   -179.8225         0.028177   
    121. D(H  11,C   8,C   6,C   3)   -179.9743         0.028023   
    122. D(C   6,C   8,C   4,H   9)   -179.7485         0.028177   
    123. D(C   6,C   8,C   4,C   2)      0.3804         0.028177   
    124. D(C  14,C  12,I   0,C   1)     49.5352         0.001760   
    125. D(C  13,C  12,I   0,O  23)     54.8642         0.001760   
    126. D(C  13,C  12,I   0,C   1)   -130.0748         0.001760   
    127. D(C  14,C  12,I   0,O  23)   -125.5258         0.001760   
    128. D(H  16,C  13,C  12,C  14)    178.9555         0.029154   
    129. D(H  16,C  13,C  12,I   0)     -1.4463         0.029154   
    130. D(C  15,C  13,C  12,C  14)     -0.0104         0.029154   
    131. D(C  15,C  13,C  12,I   0)    179.5879         0.029154   
    132. D(H  18,C  14,C  12,C  13)    179.8530         0.028901   
    133. D(H  18,C  14,C  12,I   0)      0.2513         0.028901   
    134. D(C  17,C  14,C  12,C  13)     -0.0300         0.028901   
    135. D(C  17,C  14,C  12,I   0)   -179.6316         0.028901   
    136. D(H  20,C  15,C  13,H  16)      1.0553         0.028157   
    137. D(H  20,C  15,C  13,C  12)   -179.9842         0.028157   
    138. D(C  19,C  15,C  13,H  16)   -178.9759         0.028157   
    139. D(C  19,C  15,C  13,C  12)     -0.0155         0.028157   
    140. D(H  21,C  17,C  14,H  18)      0.5296         0.028182   
    141. D(H  21,C  17,C  14,C  12)   -179.5879         0.028182   
    142. D(C  19,C  17,C  14,H  18)   -179.7863         0.028182   
    143. D(C  19,C  17,C  14,C  12)      0.0963         0.028182   
    144. D(H  22,C  19,C  17,H  21)     -0.2334         0.028057   
    145. D(C  15,C  19,C  17,H  21)    179.5592         0.028057   
    146. D(C  15,C  19,C  17,C  14)     -0.1229         0.028057   
    147. D(H  22,C  19,C  15,H  20)     -0.1570         0.028061   
    148. D(H  22,C  19,C  15,C  13)    179.8744         0.028061   
    149. D(H  22,C  19,C  17,C  14)   -179.9155         0.028057   
    150. D(C  17,C  19,C  15,H  20)   -179.9495         0.028061   
    151. D(C  17,C  19,C  15,C  13)      0.0819         0.028061   
    152. D(C  24,O  23,I   0,C  12)   -126.1938         0.001620   
    153. D(C  24,O  23,I   0,C   1)   -144.7653         0.001620   
    154. D(C  26,C  24,O  23,I   0)    178.7653         0.037601   
    155. D(C  25,C  24,O  23,I   0)     -0.1629         0.037601   
    156. D(H  28,C  25,C  24,O  23)     -1.3454         0.025741   
    157. D(C  27,C  25,C  24,C  26)      0.1083         0.025741   
    158. D(C  27,C  25,C  24,O  23)    179.0384         0.025741   
    159. D(H  28,C  25,C  24,C  26)    179.7245         0.025741   
    160. D(H  30,C  26,C  24,C  25)    179.9180         0.024970   
    161. D(H  30,C  26,C  24,O  23)      0.9387         0.024970   
    162. D(C  29,C  26,C  24,C  25)     -0.0398         0.024970   
    163. D(C  29,C  26,C  24,O  23)   -179.0192         0.024970   
    164. D(H  32,C  27,C  25,H  28)      0.2785         0.029057   
    165. D(H  32,C  27,C  25,C  24)    179.8866         0.029057   
    166. D(C  31,C  27,C  25,H  28)   -179.7591         0.029057   
    167. D(C  31,C  27,C  25,C  24)     -0.1509         0.029057   
    168. D(H  33,C  29,C  26,H  30)      0.0553         0.029380   
    169. D(H  33,C  29,C  26,C  24)   -179.9880         0.029380   
    170. D(C  31,C  29,C  26,H  30)   -179.9434         0.029380   
    171. D(C  31,C  29,C  26,C  24)      0.0133         0.029380   
    172. D(H  34,C  31,C  29,H  33)      0.0430         0.027986   
    173. D(H  34,C  31,C  29,C  26)   -179.9583         0.027986   
    174. D(C  27,C  31,C  29,H  33)    179.9482         0.027986   
    175. D(C  27,C  31,C  29,C  26)     -0.0531         0.027986   
    176. D(H  34,C  31,C  27,H  32)     -0.0110         0.028296   
    177. D(H  34,C  31,C  27,C  25)   -179.9732         0.028296   
    178. D(C  29,C  31,C  27,H  32)   -179.9162         0.028296   
    179. D(C  29,C  31,C  27,C  25)      0.1215         0.028296   
    -----------------------------------------------------------------

Number of atoms                         .... 35
Number of degrees of freedom            .... 179

         *************************************************************
         *                GEOMETRY OPTIMIZATION CYCLE   1            *
         *************************************************************
---------------------------------
CARTESIAN COORDINATES (ANGSTROEM)
---------------------------------
  I     1.109017   -0.193354    0.434056
  C     0.727821    0.226209    2.544279
  C     1.781654    0.570843    3.375285
  C    -0.553477    0.125801    3.062457
  C     1.552844    0.832157    4.715900
  H     2.778707    0.634233    2.963754
  C    -0.783970    0.390819    4.401089
  H    -1.373526   -0.154865    2.415813
  C     0.269237    0.746000    5.228134
  H     2.376020    1.104865    5.359487
  H    -1.785044    0.316010    4.799661
  H     0.088870    0.952264    6.272609
  C    -0.593061    0.989135    0.008610
  C    -1.571957    0.498121   -0.831695
  C    -0.697008    2.237413    0.591287
  C    -2.684320    1.280163   -1.093931
  H    -1.459959   -0.472925   -1.287962
  C    -1.812778    3.011995    0.322068
  H     0.080191    2.599833    1.247331
  C    -2.805319    2.534121   -0.517851
  H    -3.456352    0.906211   -1.749455
  H    -1.901594    3.991928    0.766542
  H    -3.673148    3.141680   -0.726379
  O     1.136633   -0.139502   -1.759546
  C     1.178578   -1.161831   -2.603020
  C     1.216331   -2.493558   -2.184971
  C     1.162410   -0.896412   -3.977774
  C     1.239386   -3.521397   -3.106725
  H     1.233513   -2.703126   -1.122883
  C     1.184290   -1.931022   -4.889823
  H     1.131857    0.132996   -4.302486
  C     1.222302   -3.248919   -4.463721
  H     1.270395   -4.545192   -2.760545
  H     1.171490   -1.706004   -5.947164
  H     1.239967   -4.054691   -5.182430

----------------------------
CARTESIAN COORDINATES (A.U.)
----------------------------
  NO LB    ZA    FRAG    MASS        X           Y           Z
   0 I  53.0000    0   126.900    2.095739   -0.365387    0.820246
   1 C   6.0000    0    12.011    1.375383    0.427473    4.807990
   2 C   6.0000    0    12.011    3.366838    1.078738    6.378365
   3 C   6.0000    0    12.011   -1.045919    0.237729    5.787205
   4 C   6.0000    0    12.011    2.934449    1.572549    8.911759
   5 H   1.0000    0     1.008    5.250995    1.198527    5.600683
   6 C   6.0000    0    12.011   -1.481488    0.738541    8.316853
   7 H   1.0000    0     1.008   -2.595587   -0.292652    4.565225
   8 C   6.0000    0    12.011    0.508784    1.409736    9.879742
   9 H   1.0000    0     1.008    4.490027    2.087891   10.127962
  10 H   1.0000    0     1.008   -3.373245    0.597173    9.070045
  11 H   1.0000    0     1.008    0.167940    1.799518   11.853514
  12 C   6.0000    0    12.011   -1.120723    1.869194    0.016271
  13 C   6.0000    0    12.011   -2.970569    0.941312   -1.571676
  14 C   6.0000    0    12.011   -1.317154    4.228098    1.117371
  15 C   6.0000    0    12.011   -5.072630    2.419157   -2.067229
  16 H   1.0000    0     1.008   -2.758923   -0.893698   -2.433895
  17 C   6.0000    0    12.011   -3.425654    5.691845    0.608620
  18 H   1.0000    0     1.008    0.151539    4.912973    2.357113
  19 C   6.0000    0    12.011   -5.301285    4.788795   -0.978596
  20 H   1.0000    0     1.008   -6.531559    1.712491   -3.305991
  21 H   1.0000    0     1.008   -3.593492    7.543650    1.448555
  22 H   1.0000    0     1.008   -6.941243    5.936915   -1.372658
  23 O   8.0000    0    15.999    2.147926   -0.263621   -3.325060
  24 C   6.0000    0    12.011    2.227189   -2.195542   -4.918994
  25 C   6.0000    0    12.011    2.298533   -4.712141   -4.128997
  26 C   6.0000    0    12.011    2.196636   -1.693973   -7.516903
  27 C   6.0000    0    12.011    2.342100   -6.654477   -5.870859
  28 H   1.0000    0     1.008    2.331002   -5.108167   -2.121942
  29 C   6.0000    0    12.011    2.237983   -3.649103   -9.240427
  30 H   1.0000    0     1.008    2.138900    0.251327   -8.130520
  31 C   6.0000    0    12.011    2.309817   -6.139567   -8.435210
  32 H   1.0000    0     1.008    2.400699   -8.589167   -5.216674
  33 H   1.0000    0     1.008    2.213794   -3.223879  -11.238512
  34 H   1.0000    0     1.008    2.343198   -7.662255   -9.793374

      -----------------------------------------------------------      
     |                   =====================                   |     
     |                           x T B                           |     
     |                   =====================                   |     
     |                         S. Grimme                         |     
     |          Mulliken Center for Theoretical Chemistry        |     
     |                    University of Bonn                     |     
      -----------------------------------------------------------      

   * xtb version 6.4.1 (afa7bdf) compiled by 'ehlert@majestix' on 2021-06-10

   xtb is free software: you can redistribute it and/or modify it under
   the terms of the GNU Lesser General Public License as published by
   the Free Software Foundation, either version 3 of the License, or
   (at your option) any later version.
   
   xtb is distributed in the hope that it will be useful,
   but WITHOUT ANY WARRANTY; without even the implied warranty of
   MERCHANTABILITY or FITNESS FOR A PARTICULAR PURPOSE.  See the
   GNU Lesser General Public License for more details.
   
   Cite this work as:
   * C. Bannwarth, E. Caldeweyher, S. Ehlert, A. Hansen, P. Pracht,
     J. Seibert, S. Spicher, S. Grimme, WIREs Comput. Mol. Sci., 2020, 11,
     e01493. DOI: 10.1002/wcms.1493
   
   for GFN2-xTB:
   * C. Bannwarth, S. Ehlert and S. Grimme., J. Chem. Theory Comput., 2019,
     15, 1652-1671. DOI: 10.1021/acs.jctc.8b01176
   for GFN1-xTB:
   * S. Grimme, C. Bannwarth, P. Shushkov, J. Chem. Theory Comput., 2017,
     13, 1989-2009. DOI: 10.1021/acs.jctc.7b00118
   for GFN0-xTB:
   * P. Pracht, E. Caldeweyher, S. Ehlert, S. Grimme, ChemRxiv, 2019, preprint.
     DOI: 10.26434/chemrxiv.8326202.v1
   for GFN-FF:
   * S. Spicher and S. Grimme, Angew. Chem. Int. Ed., 2020, 59, 15665-15673.
     DOI: 10.1002/anie.202004239
   
   for DFT-D4:
   * E. Caldeweyher, C. Bannwarth and S. Grimme, J. Chem. Phys., 2017,
     147, 034112. DOI: 10.1063/1.4993215
   * E. Caldeweyher, S. Ehlert, A. Hansen, H. Neugebauer, S. Spicher,
     C. Bannwarth and S. Grimme, J. Chem. Phys., 2019, 150, 154122.
     DOI: 10.1063/1.5090222
   * E. Caldeweyher, J.-M. Mewes, S. Ehlert and S. Grimme, Phys. Chem. Chem. Phys.
     2020, 22, 8499-8512. DOI: 10.1039/D0CP00502A
   
   for sTDA-xTB:
   * S. Grimme and C. Bannwarth, J. Chem. Phys., 2016, 145, 054103.
     DOI: 10.1063/1.4959605
   
   in the mass-spec context:
   * V. Asgeirsson, C. Bauer and S. Grimme, Chem. Sci., 2017, 8, 4879.
     DOI: 10.1039/c7sc00601b
   * J. Koopman and S. Grimme, ACS Omega 2019, 4, 12, 15120-15133.
     DOI: 10.1021/acsomega.9b02011
   
   for metadynamics refer to:
   * S. Grimme, J. Chem. Theory Comput., 2019, 155, 2847-2862
     DOI: 10.1021/acs.jctc.9b00143
   
   for SPH calculations refer to:
   * S. Spicher and S. Grimme, J. Chem. Theory Comput., 2021, 17, 1701-1714
     DOI: 10.1021/acs.jctc.0c01306
   
   with help from (in alphabetical order)
   P. Atkinson, C. Bannwarth, F. Bohle, G. Brandenburg, E. Caldeweyher
   M. Checinski, S. Dohm, S. Ehlert, S. Ehrlich, I. Gerasimov, J. Koopman
   C. Lavigne, S. Lehtola, F. März, M. Müller, F. Musil, H. Neugebauer
   J. Pisarek, C. Plett, P. Pracht, J. Seibert, P. Shushkov, S. Spicher
   M. Stahn, M. Steiner, T. Strunk, J. Stückrath, T. Rose, and J. Unsleber
   
 * started run on 2022/05/29 at 19:36:10.297     

           -------------------------------------------------
          |                Calculation Setup                |
           -------------------------------------------------

          program call               : xtb calc_XTB.xyz --grad -c 0 -u 0 -P 4 --namespace calc --input calc_XTB.input.tmp --acc 1.000000
          hostname                   : web
          calculation namespace      : calc
          coordinate file            : calc_XTB.xyz
          omp threads                :                     4
          number of atoms            :                    35
          number of electrons        :                   100
          charge                     :                     0
          spin                       :                   0.0
          first test random number   :      0.55330639240846

   ID    Z sym.   atoms
    1   53 I      1
    2    6 C      2-5, 7, 9, 13-16, 18, 20, 25-28, 30, 32
    3    1 H      6, 8, 10-12, 17, 19, 21-23, 29, 31, 33-35
    4    8 O      24

           -------------------------------------------------
          |                 G F N 2 - x T B                 |
           -------------------------------------------------

        Reference                      10.1021/acs.jctc.8b01176
      * Hamiltonian:
        H0-scaling (s, p, d)           1.850000    2.230000    2.230000
        zeta-weighting                 0.500000
      * Dispersion:
        s8                             2.700000
        a1                             0.520000
        a2                             5.000000
        s9                             5.000000
      * Repulsion:
        kExp                           1.500000    1.000000
        rExp                           1.000000
      * Coulomb:
        alpha                          2.000000
        third order                    shell-resolved
        anisotropic                    true
        a3                             3.000000
        a5                             4.000000
        cn-shift                       1.200000
        cn-exp                         4.000000
        max-rad                        5.000000


          ...................................................
          :                      SETUP                      :
          :.................................................:
          :  # basis functions                 101          :
          :  # atomic orbitals                 100          :
          :  # shells                           56          :
          :  # electrons                       100          :
          :  max. iterations                   250          :
          :  Hamiltonian                  GFN2-xTB          :
          :  restarted?                      false          :
          :  GBSA solvation                  false          :
          :  PC potential                    false          :
          :  electronic temp.          300.0000000     K    :
          :  accuracy                    1.0000000          :
          :  -> integral cutoff          0.2500000E+02      :
          :  -> integral neglect         0.1000000E-07      :
          :  -> SCF convergence          0.1000000E-05 Eh   :
          :  -> wf. convergence          0.1000000E-03 e    :
          :  Broyden damping             0.4000000          :
          ...................................................

 iter      E             dE          RMSdq      gap      omega  full diag
   1    -54.7318404 -0.547318E+02  0.488E+00    3.21       0.0  T
   2    -54.8460471 -0.114207E+00  0.343E+00    2.52       1.0  T
   3    -54.8628998 -0.168527E-01  0.173E+00    2.79       1.0  T
   4    -54.8698831 -0.698335E-02  0.647E-01    2.47       1.0  T
   5    -54.8714756 -0.159242E-02  0.377E-01    2.59       1.0  T
   6    -54.8743660 -0.289047E-02  0.167E-01    2.54       1.0  T
   7    -54.8743662 -0.146905E-06  0.113E-01    2.54       1.0  T
   8    -54.8744483 -0.820910E-04  0.640E-02    2.55       1.0  T
   9    -54.8744605 -0.122199E-04  0.273E-02    2.55       1.0  T
  10    -54.8744688 -0.825968E-05  0.932E-03    2.55       1.8  T
  11    -54.8744694 -0.670618E-06  0.478E-03    2.55       3.5  T
  12    -54.8744695 -0.933190E-07  0.270E-03    2.55       6.3  T
  13    -54.8744696 -0.689773E-07  0.146E-03    2.55      11.6  T
  14    -54.8744696 -0.565808E-08  0.795E-04    2.55      21.3  T
  15    -54.8744696 -0.338191E-08  0.480E-04    2.55      35.2  T

   *** convergence criteria satisfied after 15 iterations ***

         #    Occupation            Energy/Eh            Energy/eV
      -------------------------------------------------------------
         1        2.0000           -0.7432455             -20.2247
       ...           ...                  ...                  ...
        44        2.0000           -0.4200475             -11.4301
        45        2.0000           -0.4141664             -11.2700
        46        2.0000           -0.4100876             -11.1591
        47        2.0000           -0.4049584             -11.0195
        48        2.0000           -0.3797909             -10.3346
        49        2.0000           -0.3711456             -10.0994
        50        2.0000           -0.3474579              -9.4548 (HOMO)
        51                         -0.2536466              -6.9021 (LUMO)
        52                         -0.2494929              -6.7890
        53                         -0.2476899              -6.7400
        54                         -0.2385256              -6.4906
        55                         -0.2226352              -6.0582
       ...                                ...                  ...
       100                          0.7643147              20.7981
      -------------------------------------------------------------
                  HL-Gap            0.0938113 Eh            2.5527 eV
             Fermi-level           -0.3005522 Eh           -8.1784 eV

 SCC (total)                   0 d,  0 h,  0 min,  0.041 sec
 SCC setup                      ...        0 min,  0.000 sec (  0.566%)
 Dispersion                     ...        0 min,  0.000 sec (  1.060%)
 classical contributions        ...        0 min,  0.000 sec (  0.102%)
 integral evaluation            ...        0 min,  0.003 sec (  6.407%)
 iterations                     ...        0 min,  0.032 sec ( 78.122%)
 molecular gradient             ...        0 min,  0.005 sec ( 13.151%)
 printout                       ...        0 min,  0.000 sec (  0.532%)

         :::::::::::::::::::::::::::::::::::::::::::::::::::::
         ::                     SUMMARY                     ::
         :::::::::::::::::::::::::::::::::::::::::::::::::::::
         :: total energy             -53.952450587309 Eh    ::
         :: gradient norm              0.000336514505 Eh/a0 ::
         :: HOMO-LUMO gap              2.552735824264 eV    ::
         ::.................................................::
         :: SCC energy               -54.874469594124 Eh    ::
         :: -> isotropic ES            0.034084311702 Eh    ::
         :: -> anisotropic ES          0.002545347672 Eh    ::
         :: -> anisotropic XC          0.028377892565 Eh    ::
         :: -> dispersion             -0.040844969885 Eh    ::
         :: repulsion energy           0.921898309581 Eh    ::
         :: add. restraining           0.000000000000 Eh    ::
         :: total charge              -0.000000000000 e     ::
         :::::::::::::::::::::::::::::::::::::::::::::::::::::


Property printout bound to 'properties.out'

           -------------------------------------------------
          | TOTAL ENERGY              -53.952450587309 Eh   |
          | GRADIENT NORM               0.000336514505 Eh/α |
          | HOMO-LUMO GAP               2.552735824264 eV   |
           -------------------------------------------------

------------------------------------------------------------------------
 * finished run on 2022/05/29 at 19:36:10.374     
------------------------------------------------------------------------
 total:
 * wall-time:     0 d,  0 h,  0 min,  0.077 sec
 *  cpu-time:     0 d,  0 h,  0 min,  0.237 sec
 * ratio c/w:     3.078 speedup
 SCF:
 * wall-time:     0 d,  0 h,  0 min,  0.042 sec
 *  cpu-time:     0 d,  0 h,  0 min,  0.166 sec
 * ratio c/w:     3.995 speedup


-------------------------   --------------------
FINAL SINGLE POINT ENERGY       -53.952450587310
-------------------------   --------------------

------------------------------------------------------------------------------
                         ORCA GEOMETRY RELAXATION STEP
------------------------------------------------------------------------------

Reading the OPT-File                    .... done
Getting information on internals        .... done
Copying old internal coords+grads       .... done
Making the new internal coordinates     .... (new redundants).... done
Validating the new internal coordinates .... (new redundants).... done
Calculating the B-matrix                .... done
Calculating the G,G- and P matrices     .... done
Transforming gradient to internals      .... done
Projecting the internal gradient        .... done
Number of atoms                         ....  35
Number of internal coordinates          .... 179
Current Energy                          ....   -53.952450587 Eh
Current gradient norm                   ....     0.000336515 Eh/bohr
Maximum allowed component of the step   ....  0.300
Current trust radius                    ....  0.300
Evaluating the initial hessian          ....  (Almloef) done
Projecting the Hessian                  .... done
Diagonalizing the Hessian               .... done
Dimension of the hessian                .... 179
Lowest eigenvalues of the Hessian:
  0.001620161  0.001657186  0.001759708  0.002094770  0.019868537
Hessian has   0 negative eigenvalues
Taking P-RFO step
Searching for lambda that maximizes along the lowest mode
TS mode is mode number   0 with eigenvalue   0.00162016 and components:
   1.    0.00000000
   2.   -0.00000000
   3.    0.00000000
   4.   -0.00000000
   5.    0.00000000
   6.    0.00000000
   7.   -0.00000000
   8.    0.00000000
   9.   -0.00000000
  10.   -0.00000000
  11.    0.00000000
  12.   -0.00000000
  13.    0.00000000
  14.   -0.00000000
  15.   -0.00000000
  16.   -0.00000000
  17.   -0.00000000
  18.    0.00000000
  19.    0.00000000
  20.   -0.00000000
  21.    0.00000000
  22.    0.00000000
  23.   -0.00000000
  24.   -0.00000000
  25.    0.00000000
  26.   -0.00000000
  27.    0.00000000
  28.   -0.00000000
  29.    0.00000000
  30.    0.00000000
  31.   -0.00000000
  32.    0.00000000
  33.    0.00000000
  34.   -0.00000000
  35.   -0.00000000
  36.    0.00000000
  37.   -0.00000000
  38.   -0.00000000
  39.   -0.00000000
  40.    0.00000000
  41.   -0.00000000
  42.   -0.00000000
  43.    0.00000000
  44.   -0.00000000
  45.   -0.00000000
  46.    0.00000000
  47.   -0.00000000
  48.   -0.00000000
  49.    0.00000000
  50.   -0.00000000
  51.    0.00000000
  52.   -0.00000000
  53.   -0.00000000
  54.    0.00000000
  55.    0.00000000
  56.   -0.00000000
  57.    0.00000000
  58.   -0.00000000
  59.    0.00000000
  60.    0.00000000
  61.   -0.00000000
  62.    0.00000000
  63.    0.00000000
  64.   -0.00000000
  65.    0.00000000
  66.   -0.00000000
  67.    0.00000000
  68.    0.00000000
  69.   -0.00000000
  70.    0.00000000
  71.    0.00000000
  72.    0.00000000
  73.   -0.00000000
  74.   -0.00000000
  75.   -0.00000000
  76.    0.00000000
  77.    0.00000000
  78.   -0.00000000
  79.    0.00000000
  80.    0.00000000
  81.    0.00000000
  82.   -0.00000000
  83.   -0.00000000
  84.    0.00000000
  85.   -0.00000000
  86.    0.00000000
  87.   -0.00000000
  88.   -0.00000000
  89.    0.00000000
  90.   -0.00000000
  91.    0.00000000
  92.   -0.00000000
  93.    0.00000000
  94.   -0.00000000
  95.   -0.00000000
  96.   -0.00000008
  97.   -0.00000010
  98.   -0.00000008
  99.   -0.00000010
 100.   -0.00000000
 101.   -0.00000000
 102.    0.00000000
 103.   -0.00000000
 104.    0.00000000
 105.    0.00000000
 106.    0.00000000
 107.    0.00000000
 108.    0.00000000
 109.   -0.00000000
 110.   -0.00000000
 111.    0.00000000
 112.    0.00000000
 113.   -0.00000000
 114.   -0.00000000
 115.   -0.00000000
 116.   -0.00000000
 117.   -0.00000000
 118.    0.00000000
 119.   -0.00000000
 120.    0.00000000
 121.    0.00000000
 122.   -0.00000000
 123.    0.00000000
 124.   -0.00000000
 125.   -0.00000000
 126.   -0.00000000
 127.   -0.00000000
 128.    0.00000000
 129.   -0.00000000
 130.    0.00000000
 131.   -0.00000000
 132.   -0.00000000
 133.   -0.00000000
 134.   -0.00000000
 135.    0.00000000
 136.    0.00000000
 137.    0.00000000
 138.    0.00000000
 139.   -0.00000000
 140.    0.00000000
 141.    0.00000000
 142.    0.00000000
 143.    0.00000000
 144.   -0.00000000
 145.    0.00000000
 146.    0.00000000
 147.   -0.00000000
 148.    0.00000000
 149.   -0.00000000
 150.   -0.00000000
 151.   -0.00000000
 152.    0.70710677
 153.    0.70710679
 154.    0.00000000
 155.   -0.00000000
 156.    0.00000000
 157.   -0.00000000
 158.    0.00000000
 159.   -0.00000000
 160.    0.00000000
 161.   -0.00000000
 162.    0.00000000
 163.   -0.00000000
 164.   -0.00000000
 165.    0.00000000
 166.   -0.00000000
 167.    0.00000000
 168.    0.00000000
 169.   -0.00000000
 170.    0.00000000
 171.   -0.00000000
 172.    0.00000000
 173.   -0.00000000
 174.   -0.00000000
 175.   -0.00000000
 176.   -0.00000000
 177.    0.00000000
 178.    0.00000000
 179.    0.00000000

Lambda that maximizes along the TS mode:       0.00162259
Searching for lambda that minimizes along all other modes
In cycle   1: lambdaN =  -0.00000291   step =   0.00000291
In cycle   2: lambdaN =  -0.00000291   step =   0.00000000
Lambda that minimizes along all other modes:  -0.00000291
Calculated stepsize too large (   0.4257 >    0.3000). Scaled with    0.7047.
The final length of the internal step   ....       0.3000
Converting the step to cartesian space:
 Initial RMS(Int)=    0.0224230528
Transforming coordinates:
 Iter   0:  RMS(Cart)=    0.1928038690 RMS(Int)=    0.0216535843
 Iter   1:  RMS(Cart)=    0.0207468002 RMS(Int)=    0.0043378296
 Iter   2:  RMS(Cart)=    0.0021454179 RMS(Int)=    0.0007929491
 Iter   3:  RMS(Cart)=    0.0003849012 RMS(Int)=    0.0000570656
 Iter   4:  RMS(Cart)=    0.0000421692 RMS(Int)=    0.0000159690
 Iter   5:  RMS(Cart)=    0.0000068579 RMS(Int)=    0.0000007880
 Iter   6:  RMS(Cart)=    0.0000008382 RMS(Int)=    0.0000003018
 Iter   7:  RMS(Cart)=    0.0000001198 RMS(Int)=    0.0000000145
 Iter   8:  RMS(Cart)=    0.0000000167 RMS(Int)=    0.0000000054
done
Storing new coordinates                 .... done

                                .--------------------.
          ----------------------|Geometry convergence|-------------------------
          Item                value                   Tolerance       Converged
          ---------------------------------------------------------------------
          RMS gradient        0.0000229572            0.0001000000      YES
          MAX gradient        0.0001336835            0.0003000000      YES
          RMS step            0.0224230528            0.0020000000      NO
          MAX step            0.2113986404            0.0040000000      NO
          ........................................................
          Max(Bonds)      0.0001      Max(Angles)    0.02
          Max(Dihed)       12.11      Max(Improp)    0.00
          ---------------------------------------------------------------------

The optimization has not yet converged - more geometry cycles are needed


    ---------------------------------------------------------------------------
                         Redundant Internal Coordinates
                            (Angstroem and degrees)

        Definition                    Value    dE/dq     Step     New-Value  comp.(TS mode)
    ----------------------------------------------------------------------------
     1. B(C   1,I   0)                2.1850  0.000015 -0.0000    2.1850   
     2. B(C   2,C   1)                1.3856 -0.000028  0.0000    1.3856   
     3. B(C   3,C   1)                1.3858  0.000021 -0.0000    1.3857   
     4. B(C   4,C   2)                1.3849  0.000012 -0.0000    1.3849   
     5. B(H   5,C   2)                1.0805 -0.000005  0.0000    1.0805   
     6. B(C   6,C   3)                1.3839 -0.000011  0.0000    1.3839   
     7. B(H   7,C   3)                1.0814 -0.000004  0.0000    1.0814   
     8. B(C   8,C   4)                1.3847 -0.000016  0.0000    1.3847   
     9. B(C   8,C   6)                1.3854  0.000009 -0.0000    1.3854   
    10. B(H   9,C   4)                1.0799 -0.000000  0.0000    1.0799   
    11. B(H  10,C   6)                1.0801 -0.000003  0.0000    1.0801   
    12. B(H  11,C   8)                1.0798 -0.000000  0.0000    1.0798   
    13. B(C  12,I   0)                2.1157  0.000008 -0.0000    2.1157   
    14. B(C  13,C  12)                1.3804  0.000008 -0.0000    1.3804   
    15. B(C  14,C  12)                1.3815 -0.000007  0.0000    1.3815   
    16. B(C  15,C  13)                1.3848 -0.000000  0.0000    1.3848   
    17. B(H  16,C  13)                1.0787  0.000002 -0.0000    1.0787   
    18. B(C  17,C  14)                1.3847 -0.000002  0.0000    1.3847   
    19. B(H  18,C  14)                1.0797 -0.000000  0.0000    1.0797   
    20. B(C  19,C  17)                1.3853  0.000004 -0.0000    1.3853   
    21. B(C  19,C  15)                1.3853 -0.000002  0.0000    1.3853   
    22. B(H  20,C  15)                1.0796  0.000002 -0.0000    1.0796   
    23. B(H  21,C  17)                1.0797 -0.000000  0.0000    1.0797   
    24. B(H  22,C  19)                1.0797  0.000000 -0.0000    1.0797   
    25. B(O  23,I   0)                2.1944 -0.000017  0.0001    2.1945   
    26. B(C  24,O  23)                1.3260 -0.000015  0.0000    1.3260   
    27. B(C  25,C  24)                1.3963  0.000018 -0.0000    1.3963   
    28. B(C  26,C  24)                1.4002 -0.000008  0.0000    1.4002   
    29. B(C  27,C  25)                1.3808 -0.000012  0.0000    1.3808   
    30. B(H  28,C  25)                1.0827  0.000006 -0.0000    1.0827   
    31. B(C  29,C  26)                1.3794  0.000004 -0.0000    1.3794   
    32. B(H  30,C  26)                1.0798  0.000001 -0.0000    1.0798   
    33. B(C  31,C  29)                1.3856 -0.000000  0.0000    1.3856   
    34. B(C  31,C  27)                1.3842  0.000008 -0.0000    1.3842   
    35. B(H  32,C  27)                1.0812  0.000001 -0.0000    1.0812   
    36. B(H  33,C  29)                1.0811  0.000000 -0.0000    1.0811   
    37. B(H  34,C  31)                1.0799  0.000001 -0.0000    1.0799   
    38. A(C   1,I   0,C  12)           86.94 -0.000061    0.01     86.94   
    39. A(C  12,I   0,O  23)           78.19 -0.000018    0.00     78.20   
    40. A(C   1,I   0,O  23)          164.34 -0.000083    0.01    164.35   
    41. A(I   0,C   1,C   2)          119.62  0.000131   -0.02    119.61   
    42. A(C   2,C   1,C   3)          119.80  0.000003   -0.00    119.80   
    43. A(I   0,C   1,C   3)          120.57 -0.000134    0.02    120.58   
    44. A(C   1,C   2,H   5)          119.21  0.000024   -0.00    119.21   
    45. A(C   4,C   2,H   5)          120.67 -0.000011    0.00    120.67   
    46. A(C   1,C   2,C   4)          120.12 -0.000013    0.00    120.12   
    47. A(C   1,C   3,H   7)          119.76 -0.000017    0.00    119.76   
    48. A(C   1,C   3,C   6)          120.12  0.000010   -0.00    120.12   
    49. A(C   6,C   3,H   7)          120.12  0.000007   -0.00    120.12   
    50. A(C   2,C   4,H   9)          119.91 -0.000009    0.00    119.91   
    51. A(C   8,C   4,H   9)          120.12 -0.000003    0.00    120.12   
    52. A(C   2,C   4,C   8)          119.97  0.000013   -0.00    119.97   
    53. A(C   3,C   6,H  10)          119.87  0.000012   -0.00    119.87   
    54. A(C   3,C   6,C   8)          119.99 -0.000015    0.00    119.99   
    55. A(C   8,C   6,H  10)          120.14  0.000004   -0.00    120.14   
    56. A(C   4,C   8,C   6)          119.99  0.000003   -0.00    119.99   
    57. A(C   6,C   8,H  11)          119.96 -0.000000    0.00    119.96   
    58. A(C   4,C   8,H  11)          120.05 -0.000002    0.00    120.05   
    59. A(C  13,C  12,C  14)          121.66 -0.000007    0.00    121.66   
    60. A(I   0,C  12,C  14)          118.73  0.000044   -0.00    118.73   
    61. A(I   0,C  12,C  13)          119.61 -0.000037    0.00    119.61   
    62. A(C  15,C  13,H  16)          120.77  0.000001   -0.00    120.77   
    63. A(C  12,C  13,H  16)          120.27 -0.000007    0.00    120.27   
    64. A(C  12,C  13,C  15)          118.95  0.000006   -0.00    118.95   
    65. A(C  12,C  14,H  18)          120.36  0.000010   -0.00    120.36   
    66. A(C  17,C  14,H  18)          120.69 -0.000013    0.00    120.69   
    67. A(C  12,C  14,C  17)          118.95  0.000003   -0.00    118.95   
    68. A(C  13,C  15,C  19)          120.17 -0.000002    0.00    120.17   
    69. A(C  19,C  15,H  20)          120.24  0.000001   -0.00    120.24   
    70. A(C  13,C  15,H  20)          119.59  0.000001   -0.00    119.59   
    71. A(C  14,C  17,C  19)          120.15  0.000003   -0.00    120.15   
    72. A(C  19,C  17,H  21)          120.25 -0.000002    0.00    120.25   
    73. A(C  14,C  17,H  21)          119.60 -0.000001    0.00    119.60   
    74. A(C  15,C  19,C  17)          120.12 -0.000003    0.00    120.12   
    75. A(C  17,C  19,H  22)          119.93  0.000003   -0.00    119.93   
    76. A(C  15,C  19,H  22)          119.95  0.000000    0.00    119.95   
    77. A(I   0,O  23,C  24)          128.12  0.000056   -0.01    128.11   
    78. A(C  25,C  24,C  26)          118.36 -0.000002    0.00    118.36   
    79. A(O  23,C  24,C  26)          118.56  0.000029   -0.00    118.55   
    80. A(O  23,C  24,C  25)          123.07 -0.000026    0.00    123.08   
    81. A(C  27,C  25,H  28)          120.70  0.000019   -0.00    120.69   
    82. A(C  24,C  25,H  28)          118.60 -0.000030    0.00    118.61   
    83. A(C  24,C  25,C  27)          120.70  0.000011   -0.00    120.70   
    84. A(C  29,C  26,H  30)          121.11 -0.000006    0.00    121.11   
    85. A(C  24,C  26,H  30)          118.44  0.000012   -0.00    118.44   
    86. A(C  24,C  26,C  29)          120.45 -0.000005    0.00    120.45   
    87. A(C  31,C  27,H  32)          120.04 -0.000003    0.00    120.04   
    88. A(C  25,C  27,H  32)          119.45  0.000016   -0.00    119.44   
    89. A(C  25,C  27,C  31)          120.51 -0.000012    0.00    120.51   
    90. A(C  31,C  29,H  33)          119.94  0.000000   -0.00    119.94   
    91. A(C  26,C  29,H  33)          119.36 -0.000004    0.00    119.37   
    92. A(C  26,C  29,C  31)          120.70  0.000004   -0.00    120.70   
    93. A(C  29,C  31,H  34)          120.36  0.000002   -0.00    120.36   
    94. A(C  27,C  31,H  34)          120.36 -0.000007    0.00    120.36   
    95. A(C  27,C  31,C  29)          119.28  0.000005   -0.00    119.28   
    96. D(C   2,C   1,I   0,C  12)   -135.57 -0.000024    0.71   -134.86   
    97. D(C   2,C   1,I   0,O  23)   -117.38 -0.000027    0.68   -116.70   
    98. D(C   3,C   1,I   0,C  12)     45.66 -0.000030    0.72     46.38   
    99. D(C   3,C   1,I   0,O  23)     63.85 -0.000033    0.69     64.54   
   100. D(C   4,C   2,C   1,I   0)   -179.67 -0.000009    0.02   -179.65   
   101. D(H   5,C   2,C   1,C   3)    179.24 -0.000009    0.01    179.25   
   102. D(C   4,C   2,C   1,C   3)     -0.88 -0.000005    0.01     -0.88   
   103. D(H   5,C   2,C   1,I   0)      0.45 -0.000014    0.02      0.48   
   104. D(H   7,C   3,C   1,C   2)   -179.26  0.000009   -0.01   -179.28   
   105. D(H   7,C   3,C   1,I   0)     -0.49  0.000017   -0.02     -0.52   
   106. D(C   6,C   3,C   1,C   2)      1.09  0.000004   -0.00      1.08   
   107. D(C   6,C   3,C   1,I   0)    179.86  0.000012   -0.02    179.84   
   108. D(H   9,C   4,C   2,C   1)   -179.72  0.000002   -0.00   -179.72   
   109. D(C   8,C   4,C   2,H   5)   -179.97  0.000005   -0.01   -179.98   
   110. D(C   8,C   4,C   2,C   1)      0.15  0.000001   -0.00      0.15   
   111. D(H   9,C   4,C   2,H   5)      0.16  0.000006   -0.01      0.15   
   112. D(H  10,C   6,C   3,H   7)      0.05 -0.000005    0.01      0.06   
   113. D(H  10,C   6,C   3,C   1)    179.70  0.000000   -0.00    179.70   
   114. D(C   8,C   6,C   3,H   7)    179.79 -0.000004    0.01    179.80   
   115. D(C   8,C   6,C   3,C   1)     -0.56  0.000001   -0.00     -0.56   
   116. D(H  11,C   8,C   6,H  10)     -0.24 -0.000002    0.00     -0.23   
   117. D(C   4,C   8,C   6,H  10)    179.56 -0.000004    0.01    179.57   
   118. D(C   4,C   8,C   6,C   3)     -0.18 -0.000005    0.01     -0.17   
   119. D(H  11,C   8,C   4,H   9)      0.05  0.000001   -0.00      0.05   
   120. D(H  11,C   8,C   4,C   2)   -179.82  0.000002   -0.00   -179.83   
   121. D(H  11,C   8,C   6,C   3)   -179.97 -0.000002    0.00   -179.97   
   122. D(C   6,C   8,C   4,H   9)   -179.75  0.000003   -0.00   -179.75   
   123. D(C   6,C   8,C   4,C   2)      0.38  0.000004   -0.01      0.38   
   124. D(C  14,C  12,I   0,C   1)     49.54 -0.000005   -0.11     49.42   
   125. D(C  13,C  12,I   0,O  23)     54.86  0.000015   -0.11     54.75   
   126. D(C  13,C  12,I   0,C   1)   -130.07 -0.000010   -0.10   -130.18   
   127. D(C  14,C  12,I   0,O  23)   -125.53  0.000020   -0.12   -125.65   
   128. D(H  16,C  13,C  12,C  14)    178.96 -0.000003    0.00    178.96   
   129. D(H  16,C  13,C  12,I   0)     -1.45  0.000003   -0.01     -1.45   
   130. D(C  15,C  13,C  12,C  14)     -0.01 -0.000005    0.01     -0.00   
   131. D(C  15,C  13,C  12,I   0)    179.59  0.000000   -0.00    179.59   
   132. D(H  18,C  14,C  12,C  13)    179.85  0.000005   -0.01    179.84   
   133. D(H  18,C  14,C  12,I   0)      0.25 -0.000000    0.00      0.25   
   134. D(C  17,C  14,C  12,C  13)     -0.03  0.000004   -0.01     -0.04   
   135. D(C  17,C  14,C  12,I   0)   -179.63 -0.000001    0.00   -179.63   
   136. D(H  20,C  15,C  13,H  16)      1.06 -0.000000    0.00      1.06   
   137. D(H  20,C  15,C  13,C  12)   -179.98  0.000002   -0.00   -179.99   
   138. D(C  19,C  15,C  13,H  16)   -178.98  0.000000   -0.00   -178.98   
   139. D(C  19,C  15,C  13,C  12)     -0.02  0.000003   -0.00     -0.02   
   140. D(H  21,C  17,C  14,H  18)      0.53 -0.000002    0.00      0.53   
   141. D(H  21,C  17,C  14,C  12)   -179.59 -0.000001    0.00   -179.59   
   142. D(C  19,C  17,C  14,H  18)   -179.79 -0.000001    0.00   -179.78   
   143. D(C  19,C  17,C  14,C  12)      0.10  0.000000    0.00      0.10   
   144. D(H  22,C  19,C  17,H  21)     -0.23 -0.000000    0.00     -0.23   
   145. D(C  15,C  19,C  17,H  21)    179.56 -0.000002    0.00    179.56   
   146. D(C  15,C  19,C  17,C  14)     -0.12 -0.000003    0.00     -0.12   
   147. D(H  22,C  19,C  15,H  20)     -0.16  0.000001   -0.00     -0.16   
   148. D(H  22,C  19,C  15,C  13)    179.87 -0.000000    0.00    179.87   
   149. D(H  22,C  19,C  17,C  14)   -179.92 -0.000001    0.00   -179.91   
   150. D(C  17,C  19,C  15,H  20)   -179.95  0.000002   -0.00   -179.95   
   151. D(C  17,C  19,C  15,C  13)      0.08  0.000001   -0.00      0.08   
   152. D(C  24,O  23,I   0,C  12)   -126.19  0.000043   12.11   -114.08          0.71
   153. D(C  24,O  23,I   0,C   1)   -144.77  0.000046   12.11   -132.65          0.71
   154. D(C  26,C  24,O  23,I   0)    178.77  0.000105   -0.11    178.65   
   155. D(C  25,C  24,O  23,I   0)     -0.16  0.000110   -0.12     -0.28   
   156. D(H  28,C  25,C  24,O  23)     -1.35 -0.000004    0.01     -1.34   
   157. D(C  27,C  25,C  24,C  26)      0.11  0.000004   -0.01      0.10   
   158. D(C  27,C  25,C  24,O  23)    179.04 -0.000001    0.00    179.04   
   159. D(H  28,C  25,C  24,C  26)    179.72  0.000000   -0.00    179.72   
   160. D(H  30,C  26,C  24,C  25)    179.92 -0.000003    0.00    179.92   
   161. D(H  30,C  26,C  24,O  23)      0.94  0.000002   -0.00      0.94   
   162. D(C  29,C  26,C  24,C  25)     -0.04 -0.000001    0.00     -0.04   
   163. D(C  29,C  26,C  24,O  23)   -179.02  0.000004   -0.00   -179.02   
   164. D(H  32,C  27,C  25,H  28)      0.28  0.000001   -0.00      0.28   
   165. D(H  32,C  27,C  25,C  24)    179.89 -0.000002    0.00    179.89   
   166. D(C  31,C  27,C  25,H  28)   -179.76  0.000000   -0.00   -179.76   
   167. D(C  31,C  27,C  25,C  24)     -0.15 -0.000003    0.00     -0.15   
   168. D(H  33,C  29,C  26,H  30)      0.06  0.000001   -0.00      0.05   
   169. D(H  33,C  29,C  26,C  24)   -179.99 -0.000001    0.00   -179.99   
   170. D(C  31,C  29,C  26,H  30)   -179.94 -0.000001    0.00   -179.94   
   171. D(C  31,C  29,C  26,C  24)      0.01 -0.000002    0.00      0.02   
   172. D(H  34,C  31,C  29,H  33)      0.04  0.000000   -0.00      0.04   
   173. D(H  34,C  31,C  29,C  26)   -179.96  0.000002   -0.00   -179.96   
   174. D(C  27,C  31,C  29,H  33)    179.95  0.000001   -0.00    179.95   
   175. D(C  27,C  31,C  29,C  26)     -0.05  0.000003   -0.00     -0.06   
   176. D(H  34,C  31,C  27,H  32)     -0.01  0.000000   -0.00     -0.01   
   177. D(H  34,C  31,C  27,C  25)   -179.97  0.000001   -0.00   -179.97   
   178. D(C  29,C  31,C  27,H  32)   -179.92 -0.000001    0.00   -179.91   
   179. D(C  29,C  31,C  27,C  25)      0.12 -0.000000   -0.00      0.12   
    ----------------------------------------------------------------------------
[web:37260] Read -1, expected 651728, errno = 1
[web:37261] Read -1, expected 651728, errno = 1
[web:37262] Read -1, expected 651728, errno = 1

         *************************************************************
         *                GEOMETRY OPTIMIZATION CYCLE   2            *
         *************************************************************
---------------------------------
CARTESIAN COORDINATES (ANGSTROEM)
---------------------------------
  I     1.257193   -0.136438    0.468078
  C     0.799466    0.262713    2.566968
  C     1.808483    0.679077    3.420479
  C    -0.483956    0.078523    3.056032
  C     1.531827    0.928076    4.754393
  H     2.808322    0.807840    3.031582
  C    -0.762497    0.331118    4.387920
  H    -1.268363   -0.257735    2.391920
  C     0.245291    0.757830    5.237429
  H     2.319892    1.256759    5.415539
  H    -1.765343    0.190836    4.763729
  H     0.027458    0.954305    6.276636
  C    -0.495500    0.950738   -0.003495
  C    -1.423025    0.407311   -0.869414
  C    -0.683704    2.190767    0.575673
  C    -2.569394    1.127110   -1.161709
  H    -1.245500   -0.555627   -1.322055
  C    -1.832897    2.902915    0.276338
  H     0.054480    2.594771    1.252168
  C    -2.774721    2.371910   -0.589664
  H    -3.301822    0.711820   -1.837479
  H    -1.987493    3.875995    0.717847
  H    -3.668835    2.930913   -0.821641
  O     1.338427   -0.082828   -1.724263
  C     1.238227   -1.097503   -2.572071
  C     1.061937   -2.420016   -2.160318
  C     1.289731   -0.829677   -3.945492
  C     0.943760   -3.436991   -3.086834
  H     1.026081   -2.632169   -1.099217
  C     1.169243   -1.853192   -4.862349
  H     1.424738    0.192831   -4.265337
  C     0.995093   -3.162098   -4.442474
  H     0.809664   -4.454060   -2.745449
  H     1.211743   -1.626518   -5.918559
  H     0.901994   -3.959302   -5.164913

----------------------------
CARTESIAN COORDINATES (A.U.)
----------------------------
  NO LB    ZA    FRAG    MASS        X           Y           Z
   0 I  53.0000    0   126.900    2.375750   -0.257831    0.884539
   1 C   6.0000    0    12.011    1.510772    0.496455    4.850867
   2 C   6.0000    0    12.011    3.417537    1.283270    6.463768
   3 C   6.0000    0    12.011   -0.914544    0.148387    5.775063
   4 C   6.0000    0    12.011    2.894733    1.753809    8.984501
   5 H   1.0000    0     1.008    5.306960    1.526597    5.728859
   6 C   6.0000    0    12.011   -1.440910    0.625721    8.291967
   7 H   1.0000    0     1.008   -2.396860   -0.487048    4.520074
   8 C   6.0000    0    12.011    0.463534    1.432092    9.897307
   9 H   1.0000    0     1.008    4.383960    2.374930   10.233886
  10 H   1.0000    0     1.008   -3.336015    0.360628    9.002143
  11 H   1.0000    0     1.008    0.051887    1.803375   11.861123
  12 C   6.0000    0    12.011   -0.936359    1.796635   -0.006604
  13 C   6.0000    0    12.011   -2.689128    0.769706   -1.642954
  14 C   6.0000    0    12.011   -1.292014    4.139949    1.087865
  15 C   6.0000    0    12.011   -4.855450    2.129928   -2.195312
  16 H   1.0000    0     1.008   -2.353654   -1.049982   -2.498322
  17 C   6.0000    0    12.011   -3.463674    5.485713    0.522204
  18 H   1.0000    0     1.008    0.102952    4.903406    2.366255
  19 C   6.0000    0    12.011   -5.243463    4.482261   -1.114303
  20 H   1.0000    0     1.008   -6.239539    1.345145   -3.472333
  21 H   1.0000    0     1.008   -3.755817    7.324569    1.356534
  22 H   1.0000    0     1.008   -6.933094    5.538622   -1.552677
  23 O   8.0000    0    15.999    2.529260   -0.156523   -3.258384
  24 C   6.0000    0    12.011    2.339909   -2.073981   -4.860509
  25 C   6.0000    0    12.011    2.006771   -4.573167   -4.082410
  26 C   6.0000    0    12.011    2.437238   -1.567863   -7.455900
  27 C   6.0000    0    12.011    1.783448   -6.494972   -5.833270
  28 H   1.0000    0     1.008    1.939011   -4.974079   -2.077218
  29 C   6.0000    0    12.011    2.209550   -3.502025   -9.188508
  30 H   1.0000    0     1.008    2.692365    0.364398   -8.060319
  31 C   6.0000    0    12.011    1.880453   -5.975500   -8.395059
  32 H   1.0000    0     1.008    1.530044   -8.416954   -5.188147
  33 H   1.0000    0     1.008    2.289862   -3.073674  -11.184456
  34 H   1.0000    0     1.008    1.704522   -7.481997   -9.760272

      -----------------------------------------------------------      
     |                   =====================                   |     
     |                           x T B                           |     
     |                   =====================                   |     
     |                         S. Grimme                         |     
     |          Mulliken Center for Theoretical Chemistry        |     
     |                    University of Bonn                     |     
      -----------------------------------------------------------      

   * xtb version 6.4.1 (afa7bdf) compiled by 'ehlert@majestix' on 2021-06-10

   xtb is free software: you can redistribute it and/or modify it under
   the terms of the GNU Lesser General Public License as published by
   the Free Software Foundation, either version 3 of the License, or
   (at your option) any later version.
   
   xtb is distributed in the hope that it will be useful,
   but WITHOUT ANY WARRANTY; without even the implied warranty of
   MERCHANTABILITY or FITNESS FOR A PARTICULAR PURPOSE.  See the
   GNU Lesser General Public License for more details.
   
   Cite this work as:
   * C. Bannwarth, E. Caldeweyher, S. Ehlert, A. Hansen, P. Pracht,
     J. Seibert, S. Spicher, S. Grimme, WIREs Comput. Mol. Sci., 2020, 11,
     e01493. DOI: 10.1002/wcms.1493
   
   for GFN2-xTB:
   * C. Bannwarth, S. Ehlert and S. Grimme., J. Chem. Theory Comput., 2019,
     15, 1652-1671. DOI: 10.1021/acs.jctc.8b01176
   for GFN1-xTB:
   * S. Grimme, C. Bannwarth, P. Shushkov, J. Chem. Theory Comput., 2017,
     13, 1989-2009. DOI: 10.1021/acs.jctc.7b00118
   for GFN0-xTB:
   * P. Pracht, E. Caldeweyher, S. Ehlert, S. Grimme, ChemRxiv, 2019, preprint.
     DOI: 10.26434/chemrxiv.8326202.v1
   for GFN-FF:
   * S. Spicher and S. Grimme, Angew. Chem. Int. Ed., 2020, 59, 15665-15673.
     DOI: 10.1002/anie.202004239
   
   for DFT-D4:
   * E. Caldeweyher, C. Bannwarth and S. Grimme, J. Chem. Phys., 2017,
     147, 034112. DOI: 10.1063/1.4993215
   * E. Caldeweyher, S. Ehlert, A. Hansen, H. Neugebauer, S. Spicher,
     C. Bannwarth and S. Grimme, J. Chem. Phys., 2019, 150, 154122.
     DOI: 10.1063/1.5090222
   * E. Caldeweyher, J.-M. Mewes, S. Ehlert and S. Grimme, Phys. Chem. Chem. Phys.
     2020, 22, 8499-8512. DOI: 10.1039/D0CP00502A
   
   for sTDA-xTB:
   * S. Grimme and C. Bannwarth, J. Chem. Phys., 2016, 145, 054103.
     DOI: 10.1063/1.4959605
   
   in the mass-spec context:
   * V. Asgeirsson, C. Bauer and S. Grimme, Chem. Sci., 2017, 8, 4879.
     DOI: 10.1039/c7sc00601b
   * J. Koopman and S. Grimme, ACS Omega 2019, 4, 12, 15120-15133.
     DOI: 10.1021/acsomega.9b02011
   
   for metadynamics refer to:
   * S. Grimme, J. Chem. Theory Comput., 2019, 155, 2847-2862
     DOI: 10.1021/acs.jctc.9b00143
   
   for SPH calculations refer to:
   * S. Spicher and S. Grimme, J. Chem. Theory Comput., 2021, 17, 1701-1714
     DOI: 10.1021/acs.jctc.0c01306
   
   with help from (in alphabetical order)
   P. Atkinson, C. Bannwarth, F. Bohle, G. Brandenburg, E. Caldeweyher
   M. Checinski, S. Dohm, S. Ehlert, S. Ehrlich, I. Gerasimov, J. Koopman
   C. Lavigne, S. Lehtola, F. März, M. Müller, F. Musil, H. Neugebauer
   J. Pisarek, C. Plett, P. Pracht, J. Seibert, P. Shushkov, S. Spicher
   M. Stahn, M. Steiner, T. Strunk, J. Stückrath, T. Rose, and J. Unsleber
   
 * started run on 2022/05/29 at 19:36:10.803     

           -------------------------------------------------
          |                Calculation Setup                |
           -------------------------------------------------

          program call               : xtb calc_XTB.xyz --grad -c 0 -u 0 -P 4 --namespace calc --input calc_XTB.input.tmp --acc 1.000000
          hostname                   : web
          calculation namespace      : calc
          coordinate file            : calc_XTB.xyz
          omp threads                :                     4
          number of atoms            :                    35
          number of electrons        :                   100
          charge                     :                     0
          spin                       :                   0.0
          first test random number   :      0.29752506142931

   ID    Z sym.   atoms
    1   53 I      1
    2    6 C      2-5, 7, 9, 13-16, 18, 20, 25-28, 30, 32
    3    1 H      6, 8, 10-12, 17, 19, 21-23, 29, 31, 33-35
    4    8 O      24

           -------------------------------------------------
          |                 G F N 2 - x T B                 |
           -------------------------------------------------

        Reference                      10.1021/acs.jctc.8b01176
      * Hamiltonian:
        H0-scaling (s, p, d)           1.850000    2.230000    2.230000
        zeta-weighting                 0.500000
      * Dispersion:
        s8                             2.700000
        a1                             0.520000
        a2                             5.000000
        s9                             5.000000
      * Repulsion:
        kExp                           1.500000    1.000000
        rExp                           1.000000
      * Coulomb:
        alpha                          2.000000
        third order                    shell-resolved
        anisotropic                    true
        a3                             3.000000
        a5                             4.000000
        cn-shift                       1.200000
        cn-exp                         4.000000
        max-rad                        5.000000

q/qsh data taken from xtbrestart
CAMM data taken from xtbrestart

          ...................................................
          :                      SETUP                      :
          :.................................................:
          :  # basis functions                 101          :
          :  # atomic orbitals                 100          :
          :  # shells                           56          :
          :  # electrons                       100          :
          :  max. iterations                   250          :
          :  Hamiltonian                  GFN2-xTB          :
          :  restarted?                       true          :
          :  GBSA solvation                  false          :
          :  PC potential                    false          :
          :  electronic temp.          300.0000000     K    :
          :  accuracy                    1.0000000          :
          :  -> integral cutoff          0.2500000E+02      :
          :  -> integral neglect         0.1000000E-07      :
          :  -> SCF convergence          0.1000000E-05 Eh   :
          :  -> wf. convergence          0.1000000E-03 e    :
          :  Broyden damping             0.4000000          :
          ...................................................

 iter      E             dE          RMSdq      gap      omega  full diag
   1    -54.8745437 -0.548745E+02  0.566E-01    2.58       0.0  T
   2    -54.8745656 -0.219239E-04  0.327E-01    2.59       1.0  T
   3    -54.8745521  0.135350E-04  0.343E-02    2.58       1.0  T
   4    -54.8745736 -0.214978E-04  0.179E-02    2.58       1.0  T
   5    -54.8745777 -0.418680E-05  0.707E-03    2.58       2.4  T
   6    -54.8745780 -0.229019E-06  0.472E-03    2.58       3.6  T
   7    -54.8745780 -0.361579E-07  0.294E-03    2.58       5.7  T
   8    -54.8745781 -0.645568E-07  0.103E-03    2.58      16.4  T
   9    -54.8745781 -0.604565E-08  0.543E-04    2.58      31.1  T
  10    -54.8745781  0.791303E-09  0.315E-04    2.58      53.6  T

   *** convergence criteria satisfied after 10 iterations ***

         #    Occupation            Energy/Eh            Energy/eV
      -------------------------------------------------------------
         1        2.0000           -0.7434089             -20.2292
       ...           ...                  ...                  ...
        44        2.0000           -0.4203134             -11.4373
        45        2.0000           -0.4150553             -11.2942
        46        2.0000           -0.4108353             -11.1794
        47        2.0000           -0.4053633             -11.0305
        48        2.0000           -0.3808628             -10.3638
        49        2.0000           -0.3715984             -10.1117
        50        2.0000           -0.3483974              -9.4804 (HOMO)
        51                         -0.2535235              -6.8987 (LUMO)
        52                         -0.2493687              -6.7857
        53                         -0.2476565              -6.7391
        54                         -0.2387770              -6.4975
        55                         -0.2223178              -6.0496
       ...                                ...                  ...
       100                          0.7651957              20.8220
      -------------------------------------------------------------
                  HL-Gap            0.0948739 Eh            2.5816 eV
             Fermi-level           -0.3009605 Eh           -8.1896 eV

 SCC (total)                   0 d,  0 h,  0 min,  0.029 sec
 SCC setup                      ...        0 min,  0.000 sec (  0.681%)
 Dispersion                     ...        0 min,  0.000 sec (  1.459%)
 classical contributions        ...        0 min,  0.000 sec (  0.123%)
 integral evaluation            ...        0 min,  0.002 sec (  7.381%)
 iterations                     ...        0 min,  0.021 sec ( 72.956%)
 molecular gradient             ...        0 min,  0.005 sec ( 16.561%)
 printout                       ...        0 min,  0.000 sec (  0.757%)

         :::::::::::::::::::::::::::::::::::::::::::::::::::::
         ::                     SUMMARY                     ::
         :::::::::::::::::::::::::::::::::::::::::::::::::::::
         :: total energy             -53.952503269900 Eh    ::
         :: gradient norm              0.002463659836 Eh/a0 ::
         :: HOMO-LUMO gap              2.581649878615 eV    ::
         ::.................................................::
         :: SCC energy               -54.874578073602 Eh    ::
         :: -> isotropic ES            0.034068040777 Eh    ::
         :: -> anisotropic ES          0.002618172249 Eh    ::
         :: -> anisotropic XC          0.028482389822 Eh    ::
         :: -> dispersion             -0.041182380278 Eh    ::
         :: repulsion energy           0.921900594615 Eh    ::
         :: add. restraining           0.000000000000 Eh    ::
         :: total charge              -0.000000000000 e     ::
         :::::::::::::::::::::::::::::::::::::::::::::::::::::


Property printout bound to 'properties.out'

           -------------------------------------------------
          | TOTAL ENERGY              -53.952503269900 Eh   |
          | GRADIENT NORM               0.002463659836 Eh/α |
          | HOMO-LUMO GAP               2.581649878615 eV   |
           -------------------------------------------------

------------------------------------------------------------------------
 * finished run on 2022/05/29 at 19:36:10.858     
------------------------------------------------------------------------
 total:
 * wall-time:     0 d,  0 h,  0 min,  0.055 sec
 *  cpu-time:     0 d,  0 h,  0 min,  0.202 sec
 * ratio c/w:     3.656 speedup
 SCF:
 * wall-time:     0 d,  0 h,  0 min,  0.030 sec
 *  cpu-time:     0 d,  0 h,  0 min,  0.118 sec
 * ratio c/w:     3.993 speedup


[...]
   132. D(H  18,C  14,C  12,C  13)    179.83 -0.000005    0.00    179.83   
   133. D(H  18,C  14,C  12,I   0)      0.28  0.000001   -0.01      0.28   
   134. D(C  17,C  14,C  12,C  13)     -0.06 -0.000007    0.01     -0.05   
   135. D(C  17,C  14,C  12,I   0)   -179.61 -0.000001   -0.00   -179.61   
   136. D(H  20,C  15,C  13,H  16)      1.05 -0.000005    0.01      1.06   
   137. D(H  20,C  15,C  13,C  12)   -179.99 -0.000001   -0.00   -179.99   
   138. D(C  19,C  15,C  13,H  16)   -178.99 -0.000005    0.01   -178.98   
   139. D(C  19,C  15,C  13,C  12)     -0.03 -0.000001   -0.00     -0.03   
   140. D(H  21,C  17,C  14,H  18)      0.53  0.000001   -0.00      0.53   
   141. D(H  21,C  17,C  14,C  12)   -179.58  0.000003   -0.00   -179.58   
   142. D(C  19,C  17,C  14,H  18)   -179.79  0.000000    0.00   -179.79   
   143. D(C  19,C  17,C  14,C  12)      0.10  0.000003   -0.00      0.10   
   144. D(H  22,C  19,C  17,H  21)     -0.23 -0.000001    0.00     -0.23   
   145. D(C  15,C  19,C  17,H  21)    179.57  0.000002   -0.00    179.57   
   146. D(C  15,C  19,C  17,C  14)     -0.11  0.000002   -0.00     -0.12   
   147. D(H  22,C  19,C  15,H  20)     -0.16 -0.000001    0.00     -0.16   
   148. D(H  22,C  19,C  15,C  13)    179.87 -0.000001    0.00    179.87   
   149. D(H  22,C  19,C  17,C  14)   -179.91 -0.000000   -0.00   -179.91   
   150. D(C  17,C  19,C  15,H  20)   -179.96 -0.000003    0.00   -179.96   
   151. D(C  17,C  19,C  15,C  13)      0.07 -0.000003    0.00      0.08   
   152. D(C  24,O  23,I   0,C  12)   -125.92  0.000024    0.45   -125.47          0.78
   153. D(C  24,O  23,I   0,C   1)   -145.34 -0.000003    0.42   -144.92          0.44
   154. D(C  26,C  24,O  23,I   0)    178.32  0.000089   -0.09    178.23   
   155. D(C  25,C  24,O  23,I   0)     -0.62  0.000094   -0.09     -0.71   
   156. D(H  28,C  25,C  24,O  23)     -1.32 -0.000006   -0.00     -1.32   
   157. D(C  27,C  25,C  24,C  26)      0.10  0.000001    0.00      0.10   
   158. D(C  27,C  25,C  24,O  23)    179.05 -0.000004   -0.00    179.05   
   159. D(H  28,C  25,C  24,C  26)    179.73 -0.000000    0.00    179.73   
   160. D(H  30,C  26,C  24,C  25)    179.93 -0.000001   -0.00    179.92   
   161. D(H  30,C  26,C  24,O  23)      0.93  0.000004    0.00      0.93   
   162. D(C  29,C  26,C  24,C  25)     -0.05  0.000000   -0.00     -0.05   
   163. D(C  29,C  26,C  24,O  23)   -179.05  0.000005    0.00   -179.05   
   164. D(H  32,C  27,C  25,H  28)      0.28  0.000001   -0.00      0.27   
   165. D(H  32,C  27,C  25,C  24)    179.89 -0.000000   -0.00    179.89   
   166. D(C  31,C  27,C  25,H  28)   -179.76 -0.000000    0.00   -179.76   
   167. D(C  31,C  27,C  25,C  24)     -0.14 -0.000001    0.00     -0.14   
   168. D(H  33,C  29,C  26,H  30)      0.05  0.000001    0.00      0.05   
   169. D(H  33,C  29,C  26,C  24)   -179.98 -0.000000    0.00   -179.98   
   170. D(C  31,C  29,C  26,H  30)   -179.94  0.000000    0.00   -179.94   
   171. D(C  31,C  29,C  26,C  24)      0.03 -0.000001    0.00      0.03   
   172. D(H  34,C  31,C  29,H  33)      0.04 -0.000000    0.00      0.04   
   173. D(H  34,C  31,C  29,C  26)   -179.97  0.000000    0.00   -179.97   
   174. D(C  27,C  31,C  29,H  33)    179.94 -0.000000    0.00    179.95   
   175. D(C  27,C  31,C  29,C  26)     -0.07  0.000000    0.00     -0.07   
   176. D(H  34,C  31,C  27,H  32)     -0.01 -0.000000   -0.00     -0.01   
   177. D(H  34,C  31,C  27,C  25)   -179.97  0.000001   -0.00   -179.98   
   178. D(C  29,C  31,C  27,H  32)   -179.91 -0.000000   -0.00   -179.91   
   179. D(C  29,C  31,C  27,C  25)      0.12  0.000001   -0.00      0.12   
    ----------------------------------------------------------------------------
                 *******************************************************
                 *** FINAL ENERGY EVALUATION AT THE STATIONARY POINT ***
                 ***               (AFTER    6 CYCLES)               ***
                 *******************************************************
---------------------------------
CARTESIAN COORDINATES (ANGSTROEM)
---------------------------------
  I     1.111620   -0.195591    0.436756
  C     0.727783    0.225428    2.546069
  C     1.779796    0.580497    3.375086
  C    -0.552169    0.116645    3.065766
  C     1.550476    0.843073    4.715342
  H     2.775765    0.651043    2.962064
  C    -0.783228    0.382973    4.404059
  H    -1.370857   -0.170944    2.420420
  C     0.268121    0.747876    5.229206
  H     2.372169    1.123726    5.357407
  H    -1.783310    0.301592    4.803844
  H     0.087307    0.954870    6.273458
  C    -0.589461    0.986835    0.007874
  C    -1.564594    0.497531   -0.837757
  C    -0.696998    2.233002    0.594434
  C    -2.676600    1.279428   -1.101920
  H    -1.449979   -0.471947   -1.296726
  C    -1.812426    3.007400    0.323289
  H     0.077208    2.593891    1.254837
  C    -2.801080    2.531390   -0.522252
  H    -3.445667    0.906866   -1.761702
  H    -1.903991    3.985748    0.770686
  H    -3.668619    3.138835   -0.732300
  O     1.150072   -0.139022   -1.756654
  C     1.183611   -1.160988   -2.600959
  C     1.214598   -2.493248   -2.184156
  C     1.165611   -0.894316   -3.975485
  C     1.229280   -3.520405   -3.106889
  H     1.233084   -2.704062   -1.122333
  C     1.179374   -1.928210   -4.888483
  H     1.140382    0.135564   -4.299153
  C     1.210555   -3.246698   -4.463599
  H     1.255055   -4.544645   -2.761582
  H     1.165407   -1.702209   -5.945601
  H     1.221704   -4.051926   -5.183047

----------------------------
CARTESIAN COORDINATES (A.U.)
----------------------------
  NO LB    ZA    FRAG    MASS        X           Y           Z
   0 I  53.0000    0   126.900    2.100658   -0.369613    0.825350
   1 C   6.0000    0    12.011    1.375310    0.425997    4.811373
   2 C   6.0000    0    12.011    3.363327    1.096980    6.377988
   3 C   6.0000    0    12.011   -1.043449    0.220427    5.793458
   4 C   6.0000    0    12.011    2.929975    1.593177    8.910705
   5 H   1.0000    0     1.008    5.245435    1.230293    5.597490
   6 C   6.0000    0    12.011   -1.480086    0.723713    8.322466
   7 H   1.0000    0     1.008   -2.590544   -0.323037    4.573931
   8 C   6.0000    0    12.011    0.506676    1.413281    9.881767
   9 H   1.0000    0     1.008    4.482750    2.123534   10.124032
  10 H   1.0000    0     1.008   -3.369968    0.569926    9.077950
  11 H   1.0000    0     1.008    0.164987    1.804443   11.855117
  12 C   6.0000    0    12.011   -1.113920    1.864847    0.014880
  13 C   6.0000    0    12.011   -2.956655    0.940197   -1.583131
  14 C   6.0000    0    12.011   -1.317135    4.219762    1.123317
  15 C   6.0000    0    12.011   -5.058042    2.417768   -2.082328
  16 H   1.0000    0     1.008   -2.740063   -0.891851   -2.450456
  17 C   6.0000    0    12.011   -3.424988    5.683163    0.610927
  18 H   1.0000    0     1.008    0.145902    4.901743    2.371297
  19 C   6.0000    0    12.011   -5.293274    4.783633   -0.986914
  20 H   1.0000    0     1.008   -6.511366    1.713729   -3.329134
  21 H   1.0000    0     1.008   -3.598021    7.531972    1.456386
  22 H   1.0000    0     1.008   -6.932685    5.931539   -1.383846
  23 O   8.0000    0    15.999    2.173322   -0.262713   -3.319595
  24 C   6.0000    0    12.011    2.236701   -2.193949   -4.915100
  25 C   6.0000    0    12.011    2.295258   -4.711556   -4.127457
  26 C   6.0000    0    12.011    2.202686   -1.690011   -7.512577
  27 C   6.0000    0    12.011    2.323003   -6.652602   -5.871169
  28 H   1.0000    0     1.008    2.330190   -5.109937   -2.120902
  29 C   6.0000    0    12.011    2.228693   -3.643790   -9.237894
  30 H   1.0000    0     1.008    2.155010    0.256179   -8.124222
  31 C   6.0000    0    12.011    2.287618   -6.135371   -8.434979
  32 H   1.0000    0     1.008    2.371710   -8.588134   -5.218634
  33 H   1.0000    0     1.008    2.202300   -3.216709  -11.235558
  34 H   1.0000    0     1.008    2.308685   -7.657030   -9.794539

      -----------------------------------------------------------      
     |                   =====================                   |     
     |                           x T B                           |     
     |                   =====================                   |     
     |                         S. Grimme                         |     
     |          Mulliken Center for Theoretical Chemistry        |     
     |                    University of Bonn                     |     
      -----------------------------------------------------------      

   * xtb version 6.4.1 (afa7bdf) compiled by 'ehlert@majestix' on 2021-06-10

   xtb is free software: you can redistribute it and/or modify it under
   the terms of the GNU Lesser General Public License as published by
   the Free Software Foundation, either version 3 of the License, or
   (at your option) any later version.
   
   xtb is distributed in the hope that it will be useful,
   but WITHOUT ANY WARRANTY; without even the implied warranty of
   MERCHANTABILITY or FITNESS FOR A PARTICULAR PURPOSE.  See the
   GNU Lesser General Public License for more details.
   
   Cite this work as:
   * C. Bannwarth, E. Caldeweyher, S. Ehlert, A. Hansen, P. Pracht,
     J. Seibert, S. Spicher, S. Grimme, WIREs Comput. Mol. Sci., 2020, 11,
     e01493. DOI: 10.1002/wcms.1493
   
   for GFN2-xTB:
   * C. Bannwarth, S. Ehlert and S. Grimme., J. Chem. Theory Comput., 2019,
     15, 1652-1671. DOI: 10.1021/acs.jctc.8b01176
   for GFN1-xTB:
   * S. Grimme, C. Bannwarth, P. Shushkov, J. Chem. Theory Comput., 2017,
     13, 1989-2009. DOI: 10.1021/acs.jctc.7b00118
   for GFN0-xTB:
   * P. Pracht, E. Caldeweyher, S. Ehlert, S. Grimme, ChemRxiv, 2019, preprint.
     DOI: 10.26434/chemrxiv.8326202.v1
   for GFN-FF:
   * S. Spicher and S. Grimme, Angew. Chem. Int. Ed., 2020, 59, 15665-15673.
     DOI: 10.1002/anie.202004239
   
   for DFT-D4:
   * E. Caldeweyher, C. Bannwarth and S. Grimme, J. Chem. Phys., 2017,
     147, 034112. DOI: 10.1063/1.4993215
   * E. Caldeweyher, S. Ehlert, A. Hansen, H. Neugebauer, S. Spicher,
     C. Bannwarth and S. Grimme, J. Chem. Phys., 2019, 150, 154122.
     DOI: 10.1063/1.5090222
   * E. Caldeweyher, J.-M. Mewes, S. Ehlert and S. Grimme, Phys. Chem. Chem. Phys.
     2020, 22, 8499-8512. DOI: 10.1039/D0CP00502A
   
   for sTDA-xTB:
   * S. Grimme and C. Bannwarth, J. Chem. Phys., 2016, 145, 054103.
     DOI: 10.1063/1.4959605
   
   in the mass-spec context:
   * V. Asgeirsson, C. Bauer and S. Grimme, Chem. Sci., 2017, 8, 4879.
     DOI: 10.1039/c7sc00601b
   * J. Koopman and S. Grimme, ACS Omega 2019, 4, 12, 15120-15133.
     DOI: 10.1021/acsomega.9b02011
   
   for metadynamics refer to:
   * S. Grimme, J. Chem. Theory Comput., 2019, 155, 2847-2862
     DOI: 10.1021/acs.jctc.9b00143
   
   for SPH calculations refer to:
   * S. Spicher and S. Grimme, J. Chem. Theory Comput., 2021, 17, 1701-1714
     DOI: 10.1021/acs.jctc.0c01306
   
   with help from (in alphabetical order)
   P. Atkinson, C. Bannwarth, F. Bohle, G. Brandenburg, E. Caldeweyher
   M. Checinski, S. Dohm, S. Ehlert, S. Ehrlich, I. Gerasimov, J. Koopman
   C. Lavigne, S. Lehtola, F. März, M. Müller, F. Musil, H. Neugebauer
   J. Pisarek, C. Plett, P. Pracht, J. Seibert, P. Shushkov, S. Spicher
   M. Stahn, M. Steiner, T. Strunk, J. Stückrath, T. Rose, and J. Unsleber
   
 * started run on 2022/05/29 at 19:36:13.047     

           -------------------------------------------------
          |                Calculation Setup                |
           -------------------------------------------------

          program call               : xtb calc_XTB.xyz --grad -c 0 -u 0 -P 4 --namespace calc --input calc_XTB.input.tmp --acc 1.000000
          hostname                   : web
          calculation namespace      : calc
          coordinate file            : calc_XTB.xyz
          omp threads                :                     4
          number of atoms            :                    35
          number of electrons        :                   100
          charge                     :                     0
          spin                       :                   0.0
          first test random number   :      0.84513426983562

   ID    Z sym.   atoms
    1   53 I      1
    2    6 C      2-5, 7, 9, 13-16, 18, 20, 25-28, 30, 32
    3    1 H      6, 8, 10-12, 17, 19, 21-23, 29, 31, 33-35
    4    8 O      24

           -------------------------------------------------
          |                 G F N 2 - x T B                 |
           -------------------------------------------------

        Reference                      10.1021/acs.jctc.8b01176
      * Hamiltonian:
        H0-scaling (s, p, d)           1.850000    2.230000    2.230000
        zeta-weighting                 0.500000
      * Dispersion:
        s8                             2.700000
        a1                             0.520000
        a2                             5.000000
        s9                             5.000000
      * Repulsion:
        kExp                           1.500000    1.000000
        rExp                           1.000000
      * Coulomb:
        alpha                          2.000000
        third order                    shell-resolved
        anisotropic                    true
        a3                             3.000000
        a5                             4.000000
        cn-shift                       1.200000
        cn-exp                         4.000000
        max-rad                        5.000000

q/qsh data taken from xtbrestart
CAMM data taken from xtbrestart

          ...................................................
          :                      SETUP                      :
          :.................................................:
          :  # basis functions                 101          :
          :  # atomic orbitals                 100          :
          :  # shells                           56          :
          :  # electrons                       100          :
          :  max. iterations                   250          :
          :  Hamiltonian                  GFN2-xTB          :
          :  restarted?                       true          :
          :  GBSA solvation                  false          :
          :  PC potential                    false          :
          :  electronic temp.          300.0000000     K    :
          :  accuracy                    1.0000000          :
          :  -> integral cutoff          0.2500000E+02      :
          :  -> integral neglect         0.1000000E-07      :
          :  -> SCF convergence          0.1000000E-05 Eh   :
          :  -> wf. convergence          0.1000000E-03 e    :
          :  Broyden damping             0.4000000          :
          ...................................................

 iter      E             dE          RMSdq      gap      omega  full diag
   1    -54.8744717 -0.548745E+02  0.185E-02    2.55       0.0  T
   2    -54.8744717 -0.254133E-07  0.107E-02    2.55       1.6  T
   3    -54.8744717  0.337711E-07  0.140E-03    2.55      12.1  T
   4    -54.8744717 -0.461642E-07  0.631E-04    2.55      26.8  T
   5    -54.8744717 -0.217669E-08  0.245E-04    2.55      69.0  T

   *** convergence criteria satisfied after 5 iterations ***

         #    Occupation            Energy/Eh            Energy/eV
      -------------------------------------------------------------
         1        2.0000           -0.7432395             -20.2246
       ...           ...                  ...                  ...
        44        2.0000           -0.4200755             -11.4308
        45        2.0000           -0.4142028             -11.2710
        46        2.0000           -0.4101712             -11.1613
        47        2.0000           -0.4049233             -11.0185
        48        2.0000           -0.3798191             -10.3354
        49        2.0000           -0.3711616             -10.0998
        50        2.0000           -0.3474861              -9.4556 (HOMO)
        51                         -0.2537021              -6.9036 (LUMO)
        52                         -0.2495608              -6.7909
        53                         -0.2477706              -6.7422
        54                         -0.2385497              -6.4913
        55                         -0.2225368              -6.0555
       ...                                ...                  ...
       100                          0.7649396              20.8151
      -------------------------------------------------------------
                  HL-Gap            0.0937840 Eh            2.5520 eV
             Fermi-level           -0.3005941 Eh           -8.1796 eV

 SCC (total)                   0 d,  0 h,  0 min,  0.022 sec
 SCC setup                      ...        0 min,  0.000 sec (  0.892%)
 Dispersion                     ...        0 min,  0.000 sec (  1.898%)
 classical contributions        ...        0 min,  0.000 sec (  0.190%)
 integral evaluation            ...        0 min,  0.003 sec ( 13.557%)
 iterations                     ...        0 min,  0.011 sec ( 51.613%)
 molecular gradient             ...        0 min,  0.007 sec ( 30.764%)
 printout                       ...        0 min,  0.000 sec (  0.988%)

         :::::::::::::::::::::::::::::::::::::::::::::::::::::
         ::                     SUMMARY                     ::
         :::::::::::::::::::::::::::::::::::::::::::::::::::::
         :: total energy             -53.952453425439 Eh    ::
         :: gradient norm              0.000150063182 Eh/a0 ::
         :: HOMO-LUMO gap              2.551992295852 eV    ::
         ::.................................................::
         :: SCC energy               -54.874471744546 Eh    ::
         :: -> isotropic ES            0.034078108278 Eh    ::
         :: -> anisotropic ES          0.002556916433 Eh    ::
         :: -> anisotropic XC          0.028374939416 Eh    ::
         :: -> dispersion             -0.040851706887 Eh    ::
         :: repulsion energy           0.921895518594 Eh    ::
         :: add. restraining           0.000000000000 Eh    ::
         :: total charge               0.000000000000 e     ::
         :::::::::::::::::::::::::::::::::::::::::::::::::::::


Property printout bound to 'properties.out'

           -------------------------------------------------
          | TOTAL ENERGY              -53.952453425439 Eh   |
          | GRADIENT NORM               0.000150063182 Eh/α |
          | HOMO-LUMO GAP               2.551992295852 eV   |
           -------------------------------------------------

------------------------------------------------------------------------
 * finished run on 2022/05/29 at 19:36:13.083     
------------------------------------------------------------------------
 total:
 * wall-time:     0 d,  0 h,  0 min,  0.037 sec
 *  cpu-time:     0 d,  0 h,  0 min,  0.140 sec
 * ratio c/w:     3.812 speedup
 SCF:
 * wall-time:     0 d,  0 h,  0 min,  0.022 sec
 *  cpu-time:     0 d,  0 h,  0 min,  0.089 sec
 * ratio c/w:     3.996 speedup


-------------------------   --------------------
FINAL SINGLE POINT ENERGY       -53.952453425440
-------------------------   --------------------

                                *** OPTIMIZATION RUN DONE ***
[web:37427] Read -1, expected 651728, errno = 1
[web:37428] Read -1, expected 651728, errno = 1
[web:37429] Read -1, expected 651728, errno = 1

Timings for individual modules:

Sum of individual times         ...        0.811 sec (=   0.014 min)
Geometry relaxation             ...        0.381 sec (=   0.006 min)  47.0 %
XTB module                      ...        0.430 sec (=   0.007 min)  53.0 %
                             ****ORCA TERMINATED NORMALLY****
TOTAL RUN TIME: 0 days 0 hours 0 minutes 3 seconds 510 msec
