 Entering Gaussian System, Link 0=g16
 Input=calc.com
 Output=calc.log
 Initial command:
 /binaries/g16/l1.exe "/calcus/scratch/scr/38/Gau-198.inp" -scrdir="/calcus/scratch/scr/38/"
 Entering Link 1 = /binaries/g16/l1.exe PID=       200.
  
 Copyright (c) 1988-2019, Gaussian, Inc.  All Rights Reserved.
  
 This is part of the Gaussian(R) 16 program.  It is based on
 the Gaussian(R) 09 system (copyright 2009, Gaussian, Inc.),
 the Gaussian(R) 03 system (copyright 2003, Gaussian, Inc.),
 the Gaussian(R) 98 system (copyright 1998, Gaussian, Inc.),
 the Gaussian(R) 94 system (copyright 1995, Gaussian, Inc.),
 the Gaussian 92(TM) system (copyright 1992, Gaussian, Inc.),
 the Gaussian 90(TM) system (copyright 1990, Gaussian, Inc.),
 the Gaussian 88(TM) system (copyright 1988, Gaussian, Inc.),
 the Gaussian 86(TM) system (copyright 1986, Carnegie Mellon
 University), and the Gaussian 82(TM) system (copyright 1983,
 Carnegie Mellon University). Gaussian is a federally registered
 trademark of Gaussian, Inc.
  
 This software contains proprietary and confidential information,
 including trade secrets, belonging to Gaussian, Inc.
  
 This software is provided under written license and may be
 used, copied, transmitted, or stored only in accord with that
 written license.
  
 The following legend is applicable only to US Government
 contracts under FAR:
  
                    RESTRICTED RIGHTS LEGEND
  
 Use, reproduction and disclosure by the US Government is
 subject to restrictions as set forth in subparagraphs (a)
 and (c) of the Commercial Computer Software - Restricted
 Rights clause in FAR 52.227-19.
  
 Gaussian, Inc.
 340 Quinnipiac St., Bldg. 40, Wallingford CT 06492
  
  
 ---------------------------------------------------------------
 Warning -- This program may not be used in any manner that
 competes with the business of Gaussian, Inc. or will provide
 assistance to any competitor of Gaussian, Inc.  The licensee
 of this program is prohibited from giving any competitor of
 Gaussian, Inc. access to this program.  By using this program,
 the user acknowledges that Gaussian, Inc. is engaged in the
 business of creating and licensing software in the field of
 computational chemistry and represents and warrants to the
 licensee that it is not a competitor of Gaussian, Inc. and that
 it will not use this program in any manner prohibited above.
 ---------------------------------------------------------------
  

 Cite this work as:
 Gaussian 16, Revision C.01,
 M. J. Frisch, G. W. Trucks, H. B. Schlegel, G. E. Scuseria, 
 M. A. Robb, J. R. Cheeseman, G. Scalmani, V. Barone, 
 G. A. Petersson, H. Nakatsuji, X. Li, M. Caricato, A. V. Marenich, 
 J. Bloino, B. G. Janesko, R. Gomperts, B. Mennucci, H. P. Hratchian, 
 J. V. Ortiz, A. F. Izmaylov, J. L. Sonnenberg, D. Williams-Young, 
 F. Ding, F. Lipparini, F. Egidi, J. Goings, B. Peng, A. Petrone, 
 T. Henderson, D. Ranasinghe, V. G. Zakrzewski, J. Gao, N. Rega, 
 G. Zheng, W. Liang, M. Hada, M. Ehara, K. Toyota, R. Fukuda, 
 J. Hasegawa, M. Ishida, T. Nakajima, Y. Honda, O. Kitao, H. Nakai, 
 T. Vreven, K. Throssell, J. A. Montgomery, Jr., J. E. Peralta, 
 F. Ogliaro, M. J. Bearpark, J. J. Heyd, E. N. Brothers, K. N. Kudin, 
 V. N. Staroverov, T. A. Keith, R. Kobayashi, J. Normand, 
 K. Raghavachari, A. P. Rendell, J. C. Burant, S. S. Iyengar, 
 J. Tomasi, M. Cossi, J. M. Millam, M. Klene, C. Adamo, R. Cammi, 
 J. W. Ochterski, R. L. Martin, K. Morokuma, O. Farkas, 
 J. B. Foresman, and D. J. Fox, Gaussian, Inc., Wallingford CT, 2019.
 
 ******************************************
 Gaussian 16:  ES64L-G16RevC.01  3-Jul-2019
                 5-Sep-2022 
 ******************************************
 %chk=in.chk
 %nproc=1
 Will use up to    1 processors via shared memory.
 %mem=2000MB
 -----------------------------------------------------
 #p sp M062X/Def2SVP SCRF(SMD, Solvent=methanol, Read)
 -----------------------------------------------------
 1/38=1,40=2,172=1/1;
 2/12=2,17=6,18=5,40=1/2;
 3/5=43,7=101,11=2,25=1,30=1,70=32203,72=3,74=-55/1,2,3;
 4//1;
 5/5=2,38=5,53=3/2;
 6/7=2,8=2,9=2,10=2,28=1/1;
 99/5=1,9=1/99;
 Leave Link    1 at Mon Sep  5 10:40:01 2022, MaxMem=   262144000 cpu:               0.0 elap:               0.0
 (Enter /binaries/g16/l101.exe)
 -----------------------
 File created by ccinput
 -----------------------
 Symbolic Z-matrix:
 Charge =  0 Multiplicity = 1
 C                     4.2918    3.6588    0. 
 H                     4.6485    2.65      0. 
 H                     4.6485    4.1632    0.8707 
 H                     4.6485    4.1632   -0.8797 
 H                     3.2218    3.6588    0. 
 
 ITRead=  0  0  0  0  0
 MicOpt= -1 -1 -1 -1 -1
 NAtoms=      5 NQM=        5 NQMF=       0 NMMI=      0 NMMIF=      0
                NMic=       0 NMicF=      0.
                    Isotopes and Nuclear Properties:
 (Nuclear quadrupole moments (NQMom) in fm**2, nuclear magnetic moments (NMagM)
  in nuclear magnetons)

  Atom         1           2           3           4           5
 IAtWgt=          12           1           1           1           1
 AtmWgt=  12.0000000   1.0078250   1.0078250   1.0078250   1.0078250
 NucSpn=           0           1           1           1           1
 AtZEff=  -0.0000000  -0.0000000  -0.0000000  -0.0000000  -0.0000000
 NQMom=    0.0000000   0.0000000   0.0000000   0.0000000   0.0000000
 NMagM=    0.0000000   2.7928460   2.7928460   2.7928460   2.7928460
 AtZNuc=   6.0000000   1.0000000   1.0000000   1.0000000   1.0000000
 Leave Link  101 at Mon Sep  5 10:40:01 2022, MaxMem=   262144000 cpu:               0.0 elap:               0.0
 (Enter /binaries/g16/l202.exe)
                          Input orientation:                          
 ---------------------------------------------------------------------
 Center     Atomic      Atomic             Coordinates (Angstroms)
 Number     Number       Type             X           Y           Z
 ---------------------------------------------------------------------
      1          6           0        4.291800    3.658800    0.000000
      2          1           0        4.648500    2.650000    0.000000
      3          1           0        4.648500    4.163200    0.870700
      4          1           0        4.648500    4.163200   -0.879700
      5          1           0        3.221800    3.658800    0.000000
 ---------------------------------------------------------------------
                    Distance matrix (angstroms):
                    1          2          3          4          5
     1  C    0.000000
     2  H    1.070006   0.000000
     3  H    1.067601   1.745822   0.000000
     4  H    1.074954   1.750327   1.750400   0.000000
     5  H    1.070000   1.747327   1.745855   1.750361   0.000000
 Stoichiometry    CH4
 Framework group  C1[X(CH4)]
 Deg. of freedom     9
 Full point group                 C1      NOp   1
 Largest Abelian subgroup         C1      NOp   1
 Largest concise Abelian subgroup C1      NOp   1
                         Standard orientation:                         
 ---------------------------------------------------------------------
 Center     Atomic      Atomic             Coordinates (Angstroms)
 Number     Number       Type             X           Y           Z
 ---------------------------------------------------------------------
      1          6           0       -0.000767    0.000001    0.000472
      2          1           0       -0.325680   -0.869163   -0.532348
      3          1           0       -0.412253   -0.010991    0.985525
      4          1           0        1.072605    0.002075    0.058743
      5          1           0       -0.330072    0.878070   -0.514750
 ---------------------------------------------------------------------
 Rotational constants (GHZ):         164.4303219         163.9529333         163.7655362
 Leave Link  202 at Mon Sep  5 10:40:01 2022, MaxMem=   262144000 cpu:               0.0 elap:               0.0
 (Enter /binaries/g16/l301.exe)
 Standard basis: def2SVP (5D, 7F)
 Ernie: Thresh=  0.10000D-02 Tol=  0.10000D-05 Strict=F.
 There are    35 symmetry adapted cartesian basis functions of A   symmetry.
 There are    34 symmetry adapted basis functions of A   symmetry.
    34 basis functions,    53 primitive gaussians,    35 cartesian basis functions
     5 alpha electrons        5 beta electrons
       nuclear repulsion energy        13.6784087271 Hartrees.
 IExCor= 4336 DFT=T Ex+Corr=M062X ExCW=0 ScaHFX=  0.540000
 ScaDFX=  1.000000  1.000000  1.000000  1.000000 ScalE2=  1.000000  1.000000
 IRadAn=      5 IRanWt=     -1 IRanGd=            0 ICorTp=0 IEmpDi=  4
 NAtoms=    5 NActive=    5 NUniq=    5 SFac= 1.00D+00 NAtFMM=   60 NAOKFM=F Big=F
 Integral buffers will be    131072 words long.
 Raffenetti 2 integral format.
 Two-electron integral symmetry is turned on.
 Using the following non-standard input for PCM:
 modifysph
 --- end of non-standard input.
 Reading user-defined spheres from input:
 ISph  on   Nord    Re0     Alpha      Xe            Ye            Ze
 --- end of user-defined spheres data.
 ------------------------------------------------------------------------------
 Polarizable Continuum Model (PCM)
 =================================
 Model                : PCM.
 Atomic radii         : SMD-Coulomb.
 Polarization charges : Total charges.
 Charge compensation  : None.
 Solution method      : On-the-fly selection.
 Cavity type          : VdW (van der Waals Surface) (Alpha=1.000).
 Cavity algorithm     : GePol (No added spheres)
                        User-defined sphere list used, NSphG=    5.
                        Lebedev-Laikov grids with approx.  5.0 points / Ang**2.
                        Smoothing algorithm: York/Karplus (Gamma=1.0000).
                        Polarization charges: spherical gaussians, with
                                              point-specific exponents (IZeta= 3).
                        Self-potential: point-specific (ISelfS= 7).
                        Self-field    : sphere-specific E.n sum rule (ISelfD= 2).
 Solvent              : Methanol, Eps=  32.613000 Eps(inf)=   1.765709
 ------------------------------------------------------------------------------
 Spheres list:
 ISph  on   Nord     Re0    Alpha      Xe            Ye            Ze
    1   C      1    1.8500  1.000     -0.000767      0.000001      0.000472
    2   H      2    1.2000  1.000     -0.325680     -0.869163     -0.532348
    3   H      3    1.2000  1.000     -0.412253     -0.010991      0.985525
    4   H      4    1.2000  1.000      1.072605      0.002075      0.058743
    5   H      5    1.2000  1.000     -0.330072      0.878070     -0.514750
 ------------------------------------------------------------------------------
 GePol: Number of generator spheres                  =       5
 GePol: Total number of spheres                      =       5
 GePol: Number of exposed spheres                    =       5 (100.00%)
 GePol: Number of points                             =     407
 GePol: Average weight of points                     =       0.12
 GePol: Minimum weight of points                     =   0.17D-04
 GePol: Maximum weight of points                     =    0.17992
 GePol: Number of points with low weight             =       8
 GePol: Fraction of low-weight points (<1% of avg)   =       1.97%
 GePol: Cavity surface area                          =     49.321 Ang**2
 GePol: Cavity volume                                =     30.864 Ang**3
 ------------------------------------------------------------------------------
 Atomic radii for non-electrostatic terms: SMD-CDS.
 ------------------------------------------------------------------------------
 PCM non-electrostatic energy =         0.0019151683 Hartrees.
 Nuclear repulsion after PCM non-electrostatic terms =       13.6803238954 Hartrees.
 Leave Link  301 at Mon Sep  5 10:40:01 2022, MaxMem=   262144000 cpu:               0.1 elap:               0.0
 (Enter /binaries/g16/l302.exe)
 NPDir=0 NMtPBC=     1 NCelOv=     1 NCel=       1 NClECP=     1 NCelD=      1
         NCelK=      1 NCelE2=     1 NClLst=     1 CellRange=     0.0.
 One-electron integrals computed using PRISM.
 One-electron integral symmetry used in STVInt
   1 Symmetry operations used in ECPInt.
 ECPInt:  NShTT=     171 NPrTT=     553 LenC2=     172 LenP2D=     543.
 LDataN:  DoStor=T MaxTD1= 4 Len=   56
 NBasis=    34 RedAO= T EigKep=  1.32D-02  NBF=    34
 NBsUse=    34 1.00D-06 EigRej= -1.00D+00 NBFU=    34
 Precomputing XC quadrature grid using
 IXCGrd= 4 IRadAn=           5 IRanWt=          -1 IRanGd=           0 AccXCQ= 0.00D+00.
 Generated NRdTot=       0 NPtTot=           0 NUsed=           0 NTot=          32
 NSgBfM=    35    35    35    35    35 MxSgAt=     5 MxSgA2=     5.
 Leave Link  302 at Mon Sep  5 10:40:01 2022, MaxMem=   262144000 cpu:               0.1 elap:               0.1
 (Enter /binaries/g16/l303.exe)
 DipDrv:  MaxL=1.
 Leave Link  303 at Mon Sep  5 10:40:01 2022, MaxMem=   262144000 cpu:               0.0 elap:               0.0
 (Enter /binaries/g16/l401.exe)
 ExpMin= 1.22D-01 ExpMax= 1.24D+03 ExpMxC= 1.86D+02 IAcc=3 IRadAn=         5 AccDes= 0.00D+00
 Harris functional with IExCor= 1009 and IRadAn=       5 diagonalized for initial guess.
 HarFok:  IExCor= 1009 AccDes= 0.00D+00 IRadAn=         5 IDoV= 1 UseB2=F ITyADJ=14
 ICtDFT=  3500011 ScaDFX=  1.000000  1.000000  1.000000  1.000000
 FoFCou: FMM=F IPFlag=           0 FMFlag=      100000 FMFlg1=           0
         NFxFlg=           0 DoJE=T BraDBF=F KetDBF=T FulRan=T
         wScrn=  0.000000 ICntrl=       500 IOpCl=  0 I1Cent=   200000004 NGrid=           0
         NMat0=    1 NMatS0=      1 NMatT0=    0 NMatD0=    1 NMtDS0=    0 NMtDT0=    0
 Petite list used in FoFCou.
 Harris En= -40.4871073944443    
 JPrj=0 DoOrth=F DoCkMO=F.
 Leave Link  401 at Mon Sep  5 10:40:01 2022, MaxMem=   262144000 cpu:               0.2 elap:               0.2
 (Enter /binaries/g16/l502.exe)
 Keep R1 ints in memory in canonical form, NReq=1619198.
 FoFCou: FMM=F IPFlag=           0 FMFlag=           0 FMFlg1=           0
         NFxFlg=           0 DoJE=F BraDBF=F KetDBF=F FulRan=T
         wScrn=  0.000000 ICntrl=       600 IOpCl=  0 I1Cent=           0 NGrid=           0
         NMat0=    1 NMatS0=    595 NMatT0=    0 NMatD0=    1 NMtDS0=    0 NMtDT0=    0
 Symmetry not used in FoFCou.
 Two-electron integral symmetry not used.
 Closed shell SCF:
 Using DIIS extrapolation, IDIIS=  1040.
 NGot=   262144000 LenX=   261963332 LenY=   261961666
 Requested convergence on RMS density matrix=1.00D-08 within 128 cycles.
 Requested convergence on MAX density matrix=1.00D-06.
 Requested convergence on             energy=1.00D-06.
 No special actions if energy rises.

 Cycle   1  Pass 1  IDiag  1:
 Inv3:  Mode=1 IEnd=      496947.
 Iteration    1 A*A^-1 deviation from unit magnitude is 2.00D-15 for    399.
 Iteration    1 A*A^-1 deviation from orthogonality  is 1.52D-15 for    406     53.
 Iteration    1 A^-1*A deviation from unit magnitude is 2.44D-15 for    404.
 Iteration    1 A^-1*A deviation from orthogonality  is 1.58D-15 for    218     59.
 E= -40.3601288094603    
 DIIS: error= 5.15D-02 at cycle   1 NSaved=   1.
 NSaved= 1 IEnMin= 1 EnMin= -40.3601288094603     IErMin= 1 ErrMin= 5.15D-02
 ErrMax= 5.15D-02  0.00D+00 EMaxC= 1.00D-01 BMatC= 7.96D-02 BMatP= 7.96D-02
 IDIUse=3 WtCom= 4.85D-01 WtEn= 5.15D-01
 Coeff-Com:  0.100D+01
 Coeff-En:   0.100D+01
 Coeff:      0.100D+01
 Gap=     0.494 Goal=   None    Shift=    0.000
 GapD=    0.494 DampG=2.000 DampE=0.500 DampFc=1.0000 IDamp=-1.
 RMSDP=1.22D-02 MaxDP=1.58D-01              OVMax= 1.57D-01

 Cycle   2  Pass 1  IDiag  1:
 E= -40.3970641103737     Delta-E=       -0.036935300913 Rises=F Damp=F
 DIIS: error= 3.98D-02 at cycle   2 NSaved=   2.
 NSaved= 2 IEnMin= 2 EnMin= -40.3970641103737     IErMin= 2 ErrMin= 3.98D-02
 ErrMax= 3.98D-02  0.00D+00 EMaxC= 1.00D-01 BMatC= 4.68D-02 BMatP= 7.96D-02
 IDIUse=3 WtCom= 6.02D-01 WtEn= 3.98D-01
 Coeff-Com:  0.433D+00 0.567D+00
 Coeff-En:   0.340D+00 0.660D+00
 Coeff:      0.396D+00 0.604D+00
 Gap=     0.576 Goal=   None    Shift=    0.000
 RMSDP=5.51D-03 MaxDP=7.28D-02 DE=-3.69D-02 OVMax= 7.08D-02

 Cycle   3  Pass 1  IDiag  1:
 E= -40.4468327307760     Delta-E=       -0.049768620402 Rises=F Damp=F
 DIIS: error= 2.98D-03 at cycle   3 NSaved=   3.
 NSaved= 3 IEnMin= 3 EnMin= -40.4468327307760     IErMin= 3 ErrMin= 2.98D-03
 ErrMax= 2.98D-03  0.00D+00 EMaxC= 1.00D-01 BMatC= 2.56D-04 BMatP= 4.68D-02
 IDIUse=3 WtCom= 9.70D-01 WtEn= 2.98D-02
 Coeff-Com: -0.233D-01 0.425D-01 0.981D+00
 Coeff-En:   0.000D+00 0.000D+00 0.100D+01
 Coeff:     -0.226D-01 0.412D-01 0.981D+00
 Gap=     0.576 Goal=   None    Shift=    0.000
 RMSDP=3.65D-04 MaxDP=4.98D-03 DE=-4.98D-02 OVMax= 4.86D-03

 Cycle   4  Pass 1  IDiag  1:
 E= -40.4471006062035     Delta-E=       -0.000267875428 Rises=F Damp=F
 DIIS: error= 5.56D-05 at cycle   4 NSaved=   4.
 NSaved= 4 IEnMin= 4 EnMin= -40.4471006062035     IErMin= 4 ErrMin= 5.56D-05
 ErrMax= 5.56D-05  0.00D+00 EMaxC= 1.00D-01 BMatC= 5.82D-08 BMatP= 2.56D-04
 IDIUse=1 WtCom= 1.00D+00 WtEn= 0.00D+00
 Coeff-Com:  0.265D-02-0.655D-02-0.125D+00 0.113D+01
 Coeff:      0.265D-02-0.655D-02-0.125D+00 0.113D+01
 Gap=     0.576 Goal=   None    Shift=    0.000
 RMSDP=2.53D-05 MaxDP=1.61D-04 DE=-2.68D-04 OVMax= 1.38D-04

 Cycle   5  Pass 1  IDiag  1:
 E= -40.4471007071287     Delta-E=       -0.000000100925 Rises=F Damp=F
 DIIS: error= 5.59D-06 at cycle   5 NSaved=   5.
 NSaved= 5 IEnMin= 5 EnMin= -40.4471007071287     IErMin= 5 ErrMin= 5.59D-06
 ErrMax= 5.59D-06  0.00D+00 EMaxC= 1.00D-01 BMatC= 5.05D-10 BMatP= 5.82D-08
 IDIUse=1 WtCom= 1.00D+00 WtEn= 0.00D+00
 Coeff-Com:  0.796D-04-0.220D-03-0.315D-02 0.251D-01 0.978D+00
 Coeff:      0.796D-04-0.220D-03-0.315D-02 0.251D-01 0.978D+00
 Gap=     0.576 Goal=   None    Shift=    0.000
 RMSDP=1.31D-06 MaxDP=9.77D-06 DE=-1.01D-07 OVMax= 1.23D-05

 Cycle   6  Pass 1  IDiag  1:
 E= -40.4471007079932     Delta-E=       -0.000000000864 Rises=F Damp=F
 DIIS: error= 7.71D-07 at cycle   6 NSaved=   6.
 NSaved= 6 IEnMin= 6 EnMin= -40.4471007079932     IErMin= 6 ErrMin= 7.71D-07
 ErrMax= 7.71D-07  0.00D+00 EMaxC= 1.00D-01 BMatC= 1.55D-11 BMatP= 5.05D-10
 IDIUse=1 WtCom= 1.00D+00 WtEn= 0.00D+00
 Coeff-Com: -0.339D-04 0.820D-04 0.132D-02-0.137D-01-0.998D-01 0.111D+01
 Coeff:     -0.339D-04 0.820D-04 0.132D-02-0.137D-01-0.998D-01 0.111D+01
 Gap=     0.576 Goal=   None    Shift=    0.000
 RMSDP=3.33D-07 MaxDP=2.47D-06 DE=-8.64D-10 OVMax= 2.62D-06

 Cycle   7  Pass 1  IDiag  1:
 E= -40.4471007080197     Delta-E=       -0.000000000026 Rises=F Damp=F
 DIIS: error= 1.59D-07 at cycle   7 NSaved=   7.
 NSaved= 7 IEnMin= 7 EnMin= -40.4471007080197     IErMin= 7 ErrMin= 1.59D-07
 ErrMax= 1.59D-07  0.00D+00 EMaxC= 1.00D-01 BMatC= 6.14D-13 BMatP= 1.55D-11
 IDIUse=1 WtCom= 1.00D+00 WtEn= 0.00D+00
 Coeff-Com: -0.339D-05 0.107D-04 0.108D-03-0.158D-02-0.319D-01 0.122D+00
 Coeff-Com:  0.911D+00
 Coeff:     -0.339D-05 0.107D-04 0.108D-03-0.158D-02-0.319D-01 0.122D+00
 Coeff:      0.911D+00
 Gap=     0.576 Goal=   None    Shift=    0.000
 RMSDP=3.51D-08 MaxDP=3.64D-07 DE=-2.65D-11 OVMax= 3.61D-07

 Cycle   8  Pass 1  IDiag  1:
 E= -40.4471007080206     Delta-E=       -0.000000000001 Rises=F Damp=F
 DIIS: error= 1.81D-08 at cycle   8 NSaved=   8.
 NSaved= 8 IEnMin= 8 EnMin= -40.4471007080206     IErMin= 8 ErrMin= 1.81D-08
 ErrMax= 1.81D-08  0.00D+00 EMaxC= 1.00D-01 BMatC= 6.50D-15 BMatP= 6.14D-13
 IDIUse=1 WtCom= 1.00D+00 WtEn= 0.00D+00
 Coeff-Com:  0.376D-06-0.908D-06-0.876D-06 0.166D-03 0.822D-02-0.370D-01
 Coeff-Com: -0.172D+00 0.120D+01
 Coeff:      0.376D-06-0.908D-06-0.876D-06 0.166D-03 0.822D-02-0.370D-01
 Coeff:     -0.172D+00 0.120D+01
 Gap=     0.576 Goal=   None    Shift=    0.000
 RMSDP=7.24D-09 MaxDP=6.18D-08 DE=-8.88D-13 OVMax= 7.24D-08

 Error on total polarization charges =  0.02302
 SCF Done:  E(RM062X) =  -40.4471007080     A.U. after    8 cycles
            NFock=  8  Conv=0.72D-08     -V/T= 2.0115
 KE= 3.998541520917D+01 PE=-1.201932870532D+02 EE= 2.608044724069D+01
 SMD-CDS (non-electrostatic) energy       (kcal/mol) =       1.20
 (included in total energy above)
 Leave Link  502 at Mon Sep  5 10:40:04 2022, MaxMem=   262144000 cpu:               3.2 elap:               3.2
 (Enter /binaries/g16/l601.exe)
 Copying SCF densities to generalized density rwf, IOpCl= 0 IROHF=0.

 **********************************************************************

            Population analysis using the SCF Density.

 **********************************************************************

 Orbital symmetries:
       Occupied  (A) (A) (A) (A) (A)
       Virtual   (A) (A) (A) (A) (A) (A) (A) (A) (A) (A) (A) (A)
                 (A) (A) (A) (A) (A) (A) (A) (A) (A) (A) (A) (A)
                 (A) (A) (A) (A) (A)
 The electronic state is 1-A.
 Alpha  occ. eigenvalues --  -10.52069  -0.77581  -0.45207  -0.45151  -0.45047
 Alpha virt. eigenvalues --    0.12588   0.19948   0.20018   0.20049   0.46875
 Alpha virt. eigenvalues --    0.46894   0.46933   0.73104   0.76185   0.76394
 Alpha virt. eigenvalues --    0.76496   0.85559   1.16115   1.16157   1.60882
 Alpha virt. eigenvalues --    1.60886   1.61019   1.84222   1.84570   1.84667
 Alpha virt. eigenvalues --    2.19748   2.19793   2.19994   2.59423   2.59471
 Alpha virt. eigenvalues --    2.68463   2.97239   2.97807   2.98079
          Condensed to atoms (all electrons):
               1          2          3          4          5
     1  C    4.563062   0.411645   0.412047   0.411031   0.411648
     2  H    0.411645   0.593705  -0.019140  -0.019252  -0.019145
     3  H    0.412047  -0.019140   0.593397  -0.019136  -0.019140
     4  H    0.411031  -0.019252  -0.019136   0.593524  -0.019251
     5  H    0.411648  -0.019145  -0.019140  -0.019251   0.593698
 Mulliken charges:
               1
     1  C   -0.209433
     2  H    0.052187
     3  H    0.051972
     4  H    0.053084
     5  H    0.052190
 Sum of Mulliken charges =   0.00000
 Mulliken charges with hydrogens summed into heavy atoms:
               1
     1  C    0.000000
 Electronic spatial extent (au):  <R**2>=             34.6566
 Charge=              0.0000 electrons
 Dipole moment (field-independent basis, Debye):
    X=             -0.0023    Y=             -0.0001    Z=             -0.0003  Tot=              0.0023
 Quadrupole moment (field-independent basis, Debye-Ang):
   XX=             -8.1959   YY=             -8.1979   ZZ=             -8.1974
   XY=             -0.0000   XZ=             -0.0032   YZ=             -0.0001
 Traceless Quadrupole moment (field-independent basis, Debye-Ang):
   XX=              0.0011   YY=             -0.0008   ZZ=             -0.0003
   XY=             -0.0000   XZ=             -0.0032   YZ=             -0.0001
 Octapole moment (field-independent basis, Debye-Ang**2):
  XXX=              0.7109  YYY=              0.0134  ZZZ=              0.4515  XYY=             -0.3394
  XXY=              0.0026  XXZ=              0.0831  XZZ=             -0.3909  YZZ=             -0.0163
  YYZ=             -0.5306  XYZ=              0.0021
 Hexadecapole moment (field-independent basis, Debye-Ang**3):
 XXXX=            -14.4837 YYYY=            -14.6546 ZZZZ=            -14.7031 XXXY=              0.0020
 XXXZ=              0.0392 YYYX=             -0.0111 YYYZ=              0.0010 ZZZX=             -0.3537
 ZZZY=              0.0008 XXYY=             -5.1570 XXZZ=             -5.0775 YYZZ=             -4.8441
 XXYZ=             -0.0022 YYXZ=              0.3002 ZZXY=              0.0090
 N-N= 1.368032389537D+01 E-N=-1.201932868172D+02  KE= 3.998541520917D+01
 No NMR shielding tensors so no spin-rotation constants.
 Leave Link  601 at Mon Sep  5 10:40:04 2022, MaxMem=   262144000 cpu:               0.0 elap:               0.0
 (Enter /binaries/g16/l9999.exe)
 Unable to Open any file for archive entry.
 1\1\GINC-WEB\SP\RM062X\def2SVP\C1H4\CALCUS\05-Sep-2022\0\\#p sp M062X/
 Def2SVP SCRF(SMD, Solvent=methanol, Read)\\File created by ccinput\\0,
 1\C,0,4.2918,3.6588,0.\H,0,4.6485,2.65,0.\H,0,4.6485,4.1632,0.8707\H,0
 ,4.6485,4.1632,-0.8797\H,0,3.2218,3.6588,0.\\Version=ES64L-G16RevC.01\
 State=1-A\HF=-40.4471007\RMSD=7.244e-09\Dipole=-0.0003051,-0.0004762,0
 .0006951\Quadrupole=-0.0010447,-0.0016498,0.0026945,-0.0006757,0.00033
 58,0.0004739\PG=C01 [X(C1H4)]\\@
 The archive entry for this job was punched.


     "IF I COULD JUST GET IT ON PAPER"
 LIFE AND INK, THEY RUN OUT AT THE SAME TIME,
 OR SO SAID MY OLD FRIEND THE SQUID.
     -- JIMMY BUFFETT, 1981
 Job cpu time:       0 days  0 hours  0 minutes  3.8 seconds.
 Elapsed time:       0 days  0 hours  0 minutes  3.7 seconds.
 File lengths (MBytes):  RWF=     10 Int=      0 D2E=      0 Chk=      1 Scr=      1
 Normal termination of Gaussian 16 at Mon Sep  5 10:40:04 2022.
