
                                 *****************
                                 * O   R   C   A *
                                 *****************

                                            #,                                       
                                            ###                                      
                                            ####                                     
                                            #####                                    
                                            ######                                   
                                           ########,                                 
                                     ,,################,,,,,                         
                               ,,#################################,,                 
                          ,,##########################################,,             
                       ,#########################################, ''#####,          
                    ,#############################################,,   '####,        
                  ,##################################################,,,,####,       
                ,###########''''           ''''###############################       
              ,#####''   ,,,,##########,,,,          '''####'''          '####       
            ,##' ,,,,###########################,,,                        '##       
           ' ,,###''''                  '''############,,,                           
         ,,##''                                '''############,,,,        ,,,,,,###''
      ,#''                                            '''#######################'''  
     '                                                          ''''####''''         
             ,#######,   #######,   ,#######,      ##                                
            ,#'     '#,  ##    ##  ,#'     '#,    #''#        ######   ,####,        
            ##       ##  ##   ,#'  ##            #'  '#       #        #'  '#        
            ##       ##  #######   ##           ,######,      #####,   #    #        
            '#,     ,#'  ##    ##  '#,     ,#' ,#      #,         ##   #,  ,#        
             '#######'   ##     ##  '#######'  #'      '#     #####' # '####'        



                  #######################################################
                  #                        -***-                        #
                  #          Department of theory and spectroscopy      #
                  #    Directorship and core code : Frank Neese         #
                  #        Max Planck Institute fuer Kohlenforschung    #
                  #                Kaiser Wilhelm Platz 1               #
                  #                 D-45470 Muelheim/Ruhr               #
                  #                      Germany                        #
                  #                                                     #
                  #                  All rights reserved                #
                  #                        -***-                        #
                  #######################################################


                         Program Version 5.0.3 -  RELEASE  -


 With contributions from (in alphabetic order):
   Daniel Aravena         : Magnetic Suceptibility
   Michael Atanasov       : Ab Initio Ligand Field Theory (pilot matlab implementation)
   Alexander A. Auer      : GIAO ZORA, VPT2 properties, NMR spectrum
   Ute Becker             : Parallelization
   Giovanni Bistoni       : ED, misc. LED, open-shell LED, HFLD
   Martin Brehm           : Molecular dynamics
   Dmytro Bykov           : SCF Hessian
   Vijay G. Chilkuri      : MRCI spin determinant printing, contributions to CSF-ICE
   Dipayan Datta          : RHF DLPNO-CCSD density
   Achintya Kumar Dutta   : EOM-CC, STEOM-CC
   Dmitry Ganyushin       : Spin-Orbit,Spin-Spin,Magnetic field MRCI
   Miquel Garcia          : C-PCM and meta-GGA Hessian, CC/C-PCM, Gaussian charge scheme
   Yang Guo               : DLPNO-NEVPT2, F12-NEVPT2, CIM, IAO-localization
   Andreas Hansen         : Spin unrestricted coupled pair/coupled cluster methods
   Benjamin Helmich-Paris : MC-RPA, TRAH-SCF, COSX integrals
   Lee Huntington         : MR-EOM, pCC
   Robert Izsak           : Overlap fitted RIJCOSX, COSX-SCS-MP3, EOM
   Marcus Kettner         : VPT2
   Christian Kollmar      : KDIIS, OOCD, Brueckner-CCSD(T), CCSD density, CASPT2, CASPT2-K
   Simone Kossmann        : Meta GGA functionals, TD-DFT gradient, OOMP2, MP2 Hessian
   Martin Krupicka        : Initial AUTO-CI
   Lucas Lang             : DCDCAS
   Marvin Lechner         : AUTO-CI (C++ implementation), FIC-MRCC
   Dagmar Lenk            : GEPOL surface, SMD
   Dimitrios Liakos       : Extrapolation schemes; Compound Job, initial MDCI parallelization
   Dimitrios Manganas     : Further ROCIS development; embedding schemes
   Dimitrios Pantazis     : SARC Basis sets
   Anastasios Papadopoulos: AUTO-CI, single reference methods and gradients
   Taras Petrenko         : DFT Hessian,TD-DFT gradient, ASA, ECA, R-Raman, ABS, FL, XAS/XES, NRVS
   Peter Pinski           : DLPNO-MP2, DLPNO-MP2 Gradient
   Christoph Reimann      : Effective Core Potentials
   Marius Retegan         : Local ZFS, SOC
   Christoph Riplinger    : Optimizer, TS searches, QM/MM, DLPNO-CCSD(T), (RO)-DLPNO pert. Triples
   Tobias Risthaus        : Range-separated hybrids, TD-DFT gradient, RPA, STAB
   Michael Roemelt        : Original ROCIS implementation
   Masaaki Saitow         : Open-shell DLPNO-CCSD energy and density
   Barbara Sandhoefer     : DKH picture change effects
   Avijit Sen             : IP-ROCIS
   Kantharuban Sivalingam : CASSCF convergence, NEVPT2, FIC-MRCI
   Bernardo de Souza      : ESD, SOC TD-DFT
   Georgi Stoychev        : AutoAux, RI-MP2 NMR, DLPNO-MP2 response
   Willem Van den Heuvel  : Paramagnetic NMR
   Boris Wezisla          : Elementary symmetry handling
   Frank Wennmohs         : Technical directorship


 We gratefully acknowledge several colleagues who have allowed us to
 interface, adapt or use parts of their codes:
   Stefan Grimme, W. Hujo, H. Kruse, P. Pracht,  : VdW corrections, initial TS optimization,
                  C. Bannwarth, S. Ehlert          DFT functionals, gCP, sTDA/sTD-DF
   Ed Valeev, F. Pavosevic, A. Kumar             : LibInt (2-el integral package), F12 methods
   Garnet Chan, S. Sharma, J. Yang, R. Olivares  : DMRG
   Ulf Ekstrom                                   : XCFun DFT Library
   Mihaly Kallay                                 : mrcc  (arbitrary order and MRCC methods)
   Jiri Pittner, Ondrej Demel                    : Mk-CCSD
   Frank Weinhold                                : gennbo (NPA and NBO analysis)
   Christopher J. Cramer and Donald G. Truhlar   : smd solvation model
   Lars Goerigk                                  : TD-DFT with DH, B97 family of functionals
   V. Asgeirsson, H. Jonsson                     : NEB implementation
   FAccTs GmbH                                   : IRC, NEB, NEB-TS, DLPNO-Multilevel, CI-OPT
                                                   MM, QMMM, 2- and 3-layer-ONIOM, Crystal-QMMM,
                                                   LR-CPCM, SF, NACMEs, symmetry and pop. for TD-DFT,
                                                   nearIR, NL-DFT gradient (VV10), updates on ESD,
                                                   ML-optimized integration grids
   S Lehtola, MJT Oliveira, MAL Marques          : LibXC Library
   Liviu Ungur et al                             : ANISO software


 Your calculation uses the libint2 library for the computation of 2-el integrals
 For citations please refer to: http://libint.valeyev.net

 Your ORCA version has been built with support for libXC version: 5.1.0
 For citations please refer to: https://tddft.org/programs/libxc/

 This ORCA versions uses:
   CBLAS   interface :  Fast vector & matrix operations
   LAPACKE interface :  Fast linear algebra routines
   SCALAPACK package :  Parallel linear algebra routines
   Shared memory     :  Shared parallel matrices
   BLAS/LAPACK       :  OpenBLAS 0.3.15  USE64BITINT DYNAMIC_ARCH NO_AFFINITY Zen SINGLE_THREADED
        Core in use  :  Zen
   Copyright (c) 2011-2014, The OpenBLAS Project


================================================================================

----- Orbital basis set information -----
Your calculation utilizes the basis: cc-pVDZ 
       H, B-Ne : Obtained from the ccRepo (grant-hill.group.shef.ac.uk/ccrepo) Feb. 2017
                 T. H. Dunning, Jr., J. Chem. Phys. 90, 1007 (1989)
            He : Obtained from the ccRepo (grant-hill.group.shef.ac.uk/ccrepo) Feb. 2017
                 D. E. Woon, T. H. Dunning, Jr., J. Chem. Phys. 100, 2975 (1994)
  Li-Be, Na-Mg : Obtained from the ccRepo (grant-hill.group.shef.ac.uk/ccrepo) Feb. 2017
                 B. P. Prascher, D. E. Woon, K. A. Peterson, T. H. Dunning, Jr., A. K. Wilson, Theor. Chem. Acc. 128, 69 (2011)
         Al-Ar : Obtained from the ccRepo (grant-hill.group.shef.ac.uk/ccrepo) Feb. 2017
                 D. E. Woon, T. H. Dunning, Jr., J. Chem. Phys. 98, 1358 (1993)
            Ca : Obtained from the Peterson Research Group Website (tyr0.chem.wsu.edu/~kipeters) Feb. 2017
                 J. Koput, K. A. Peterson, J. Phys. Chem. 106, 9595 (2002)
         Sc-Zn : Obtained from the ccRepo (grant-hill.group.shef.ac.uk/ccrepo) Feb. 2017
                 N. B. Balabanov, K. A. Peterson, J. Chem. Phys. 123, 064107 (2005)
                 N. B. Balabanov, K. A. Peterson, J. Chem. Phys. 125, 074110 (2006)
         Ga-Kr : Obtained from the ccRepo (grant-hill.group.shef.ac.uk/ccrepo) Feb. 2017
                 A. K. Wilson, D. E. Woon, K. A. Peterson, T. H. Dunning, Jr., J. Chem. Phys. 110, 7667 (1999)

----- AuxC basis set information -----
Your calculation utilizes the auxiliary basis: cc-pVDZ/C 
  H-He, B, Ne, Al-Ar, Ga-Br : Obtained from the EMSL Basis Set Exchange (bse.pnl.gov) Feb. 2017
                              F. Weigend, A. Kohn, C. Hattig, J. Chem. Phys. 116, 3175 (2002)
               Li-Be, Na-Mg : Obtained from the EMSL Basis Set Exchange (bse.pnl.gov) Feb. 2017
                              C. Haettig, Phys. Chem. Chem. Phys. 7, 59 (2005)
                        C-F : Obtained from the EMSL Basis Set Exchange (bse.pnl.gov) Feb. 2017
                              C. Haettig, Phys. Chem. Chem. Phys. 7, 59 (2005)
                              F. Weigend, A. Kohn, C. Hattig, J. Chem. Phys. 116, 3175 (2002)
                         Kr : Obtained from the TURBOMOLE 7.0 basis set library
                              F. Weigend, A. Kohn, C. Hattig, J. Chem. Phys. 116, 3175 (2002)
                              S function revised in Sep. 2009

================================================================================
                                        WARNINGS
                       Please study these warnings very carefully!
================================================================================


WARNING: The frozen-core approximation for MP2-gradient calculations is turned on by default.

WARNING: Geometry Optimization
  ===> : Switching off AutoStart
         For restart on a previous wavefunction, please use MOREAD

WARNING: Post HF methods need fully converged wavefunctions
  ===> : Setting SCFConvForced true
         You can overwrite this default with %scf ConvForced false 


INFO   : the flag for use of the SHARK integral package has been found!

================================================================================
                                       INPUT FILE
================================================================================
NAME = calc.inp
|  1> !OPTTS RI-MP2 cc-pVDZ cc-pvdz/c
|  2> *xyz 0 1
|  3> N    1.08764072  -0.33994563  -0.00972525
|  4> H    1.99826837   0.05502843   0.00651241
|  5> H    0.59453997  -0.48560162   0.83949232
|  6> H    0.66998094  -0.58930117  -0.87511947
|  7> *
|  8> %pal
|  9> nprocs 4
| 10> endd                         ****END OF INPUT****
================================================================================

                       *****************************
                       * Geometry Optimization Run *
                       *****************************

Geometry optimization settings:
Update method            Update   .... Bofill
Choice of coordinates    CoordSys .... Z-matrix Internals
Initial Hessian          InHess   .... Almoef's Model

Convergence Tolerances:
Energy Change            TolE     ....  5.0000e-06 Eh
Max. Gradient            TolMAXG  ....  3.0000e-04 Eh/bohr
RMS Gradient             TolRMSG  ....  1.0000e-04 Eh/bohr
Max. Displacement        TolMAXD  ....  4.0000e-03 bohr
RMS Displacement         TolRMSD  ....  2.0000e-03 bohr
Strict Convergence                ....  False
------------------------------------------------------------------------------
                        ORCA OPTIMIZATION COORDINATE SETUP
------------------------------------------------------------------------------

The optimization will be done in new redundant internal coordinates
Making redundant internal coordinates   ...  (new redundants) done
Following TS mode number                ...     0
Evaluating the initial hessian          ...  (Almloef) done
Evaluating the coordinates              ...  done
Calculating the B-matrix                .... done
Calculating the G-matrix                .... done
Diagonalizing the G-matrix              .... done
The first mode is                       ....    1
The number of degrees of freedom        ....    6

    -----------------------------------------------------------------
                    Redundant Internal Coordinates


    -----------------------------------------------------------------
         Definition                    Initial Value    Approx d2E/dq
    -----------------------------------------------------------------
      1. B(H   1,N   0)                  0.9927         0.461052   
      2. B(H   2,N   0)                  0.9927         0.461032   
      3. B(H   3,N   0)                  0.9927         0.461040   
      4. A(H   1,N   0,H   3)          120.0077         0.309499   
      5. A(H   2,N   0,H   3)          119.9916         0.309497   
      6. A(H   1,N   0,H   2)          120.0007         0.309498   
      7. I(H   1,H   3,H   2,N   0)      0.0008         0.029645   
    -----------------------------------------------------------------

Number of atoms                         .... 4
Number of degrees of freedom            .... 7

         *************************************************************
         *                GEOMETRY OPTIMIZATION CYCLE   1            *
         *************************************************************
---------------------------------
CARTESIAN COORDINATES (ANGSTROEM)
---------------------------------
  N      1.087641   -0.339946   -0.009725
  H      1.998268    0.055028    0.006512
  H      0.594540   -0.485602    0.839492
  H      0.669981   -0.589301   -0.875119

----------------------------
CARTESIAN COORDINATES (A.U.)
----------------------------
  NO LB      ZA    FRAG     MASS         X           Y           Z
   0 N     7.0000    0    14.007    2.055343   -0.642404   -0.018378
   1 H     1.0000    0     1.008    3.776180    0.103989    0.012307
   2 H     1.0000    0     1.008    1.123518   -0.917654    1.586411
   3 H     1.0000    0     1.008    1.266080   -1.113618   -1.653736

--------------------------------
INTERNAL COORDINATES (ANGSTROEM)
--------------------------------
 N      0   0   0     0.000000000000     0.00000000     0.00000000
 H      1   0   0     0.992729009660     0.00000000     0.00000000
 H      1   2   0     0.992740901882   120.00072922     0.00000000
 H      1   2   3     0.992736134714   120.00768762   179.99907711

---------------------------
INTERNAL COORDINATES (A.U.)
---------------------------
 N      0   0   0     0.000000000000     0.00000000     0.00000000
 H      1   0   0     1.875985953455     0.00000000     0.00000000
 H      1   2   0     1.876008426500   120.00072922     0.00000000
 H      1   2   3     1.875999417858   120.00768762   179.99907711

---------------------
BASIS SET INFORMATION
---------------------
There are 2 groups of distinct atoms

 Group   1 Type N   : 17s4p1d contracted to 3s2p1d pattern {881/31/1}
 Group   2 Type H   : 4s1p contracted to 2s1p pattern {31/1}

Atom   0N    basis set group =>   1
Atom   1H    basis set group =>   2
Atom   2H    basis set group =>   2
Atom   3H    basis set group =>   2
---------------------------------
AUXILIARY/C BASIS SET INFORMATION
---------------------------------
There are 2 groups of distinct atoms

 Group   1 Type N   : 7s5p4d2f contracted to 7s5p4d2f pattern {1111111/11111/1111/11}
 Group   2 Type H   : 3s2p1d contracted to 3s2p1d pattern {111/11/1}

Atom   0N    basis set group =>   1
Atom   1H    basis set group =>   2
Atom   2H    basis set group =>   2
Atom   3H    basis set group =>   2


           ************************************************************
           *        Program running with 4 parallel MPI-processes     *
           *              working on a common directory               *
           ************************************************************
------------------------------------------------------------------------------
                           ORCA GTO INTEGRAL CALCULATION
------------------------------------------------------------------------------
[web:04516] Read -1, expected 651728, errno = 1
[web:04517] Read -1, expected 651728, errno = 1
[web:04518] Read -1, expected 651728, errno = 1
[web:04516] Read -1, expected 31096, errno = 1
[web:04518] Read -1, expected 31096, errno = 1
[web:04517] Read -1, expected 31096, errno = 1
------------------------------------------------------------------------------
                   ___                                                        
                  /   \      - P O W E R E D   B Y -                         
                 /     \                                                     
                 |  |  |   _    _      __       _____    __    __             
                 |  |  |  | |  | |    /  \     |  _  \  |  |  /  |          
                  \  \/   | |  | |   /    \    | | | |  |  | /  /          
                 / \  \   | |__| |  /  /\  \   | |_| |  |  |/  /          
                |  |  |   |  __  | /  /__\  \  |    /   |      \           
                |  |  |   | |  | | |   __   |  |    \   |  |\   \          
                \     /   | |  | | |  |  |  |  | |\  \  |  | \   \       
                 \___/    |_|  |_| |__|  |__|  |_| \__\ |__|  \__/        
                                                                              
                      - O R C A' S   B I G   F R I E N D -                    
                                      &                                       
                       - I N T E G R A L  F E E D E R -                       
                                                                              
 v1 FN, 2020, v2 2021                                                         
------------------------------------------------------------------------------


Reading SHARK input file calc.SHARKINP.tmp ... [web:04516] Read -1, expected 4136, errno = 1
[web:04518] Read -1, expected 4136, errno = 1
[web:04517] Read -1, expected 4136, errno = 1
ok
----------------------
SHARK INTEGRAL PACKAGE
----------------------

Number of atoms                             ...      4
Number of basis functions                   ...     35
Number of shells                            ...     21
Maximum angular momentum                    ...      2
Integral batch strategy                     ... SHARK/LIBINT Hybrid
RI-J (if used) integral strategy            ... SPLIT-RIJ (Revised 2003 algorithm where possible)
Printlevel                                  ...      1
Contraction scheme used                     ... PARTIAL GENERAL contraction
Coulomb Range Separation                    ... NOT USED
Exchange Range Separation                   ... NOT USED
Finite Nucleus Model                        ... NOT USED
Auxiliary Coulomb fitting basis             ... NOT available
Auxiliary J/K fitting basis                 ... NOT available
Auxiliary Correlation fitting basis         ... AVAILABLE
   # of basis functions in Aux-C            ...     98
   # of shells in Aux-C                     ...     36
   Maximum angular momentum in Aux-C        ...      3
Auxiliary 'external' fitting basis          ... NOT available
Integral threshold                          ...     2.500000e-11
Primitive cut-off                           ...     2.500000e-12
Primitive pair pre-selection threshold      ...     2.500000e-12

Calculating pre-screening integrals         ... done (  0.0 sec) Dimension = 21
Calculating pre-screening integrals (ORCA)  ... done (  0.0 sec) Dimension = 15
Organizing shell pair data                  ... [web:04518] Read -1, expected 4136, errno = 1
[web:04517] Read -1, expected 4136, errno = 1
[web:04516] Read -1, expected 4136, errno = 1
done (  0.0 sec)
Shell pair information
Total number of shell pairs                 ...       231
Shell pairs after pre-screening             ...       231
Total number of primitive shell pairs       ...       447
Primitive shell pairs kept                  ...       429
          la=0 lb=0:    120 shell pairs
          la=1 lb=0:     75 shell pairs
          la=1 lb=1:     15 shell pairs
          la=2 lb=0:     15 shell pairs
          la=2 lb=1:      5 shell pairs
          la=2 lb=2:      1 shell pairs

Calculating one electron integrals          ... [web:04516] Read -1, expected 5040, errno = 1
[web:04518] Read -1, expected 5040, errno = 1
[web:04517] Read -1, expected 5040, errno = 1
[web:04516] Read -1, expected 5040, errno = 1
[web:04518] Read -1, expected 5040, errno = 1
[web:04518] Read -1, expected 5040, errno = 1
[web:04517] Read -1, expected 5040, errno = 1
[web:04517] Read -1, expected 5040, errno = 1
[web:04515] Read -1, expected 5040, errno = 1
[web:04515] Read -1, expected 5040, errno = 1
[web:04515] Read -1, expected 5040, errno = 1
[web:04517] Read -1, expected 5040, errno = 1
[web:04517] Read -1, expected 5040, errno = 1
[web:04518] Read -1, expected 5040, errno = 1
[web:04518] Read -1, expected 5040, errno = 1
[web:04516] Read -1, expected 5040, errno = 1
[web:04516] Read -1, expected 5040, errno = 1
[web:04516] Read -1, expected 5040, errno = 1
[web:04515] Read -1, expected 5040, errno = 1
[web:04515] Read -1, expected 5040, errno = 1
[web:04515] Read -1, expected 5040, errno = 1
[web:04516] Read -1, expected 5040, errno = 1
[web:04516] Read -1, expected 5040, errno = 1
[web:04516] Read -1, expected 5040, errno = 1
[web:04517] Read -1, expected 5040, errno = 1
[web:04517] Read -1, expected 5040, errno = 1
[web:04517] Read -1, expected 5040, errno = 1
[web:04518] Read -1, expected 5040, errno = 1
[web:04518] Read -1, expected 5040, errno = 1
[web:04518] Read -1, expected 5040, errno = 1
[web:04515] Read -1, expected 5040, errno = 1
[web:04515] Read -1, expected 5040, errno = 1
done (  0.0 sec)
Calculating RI/C V-Matrix + Cholesky decomp.... [web:04516] Read -1, expected 4136, errno = 1
[web:04517] Read -1, expected 4136, errno = 1
[web:04518] Read -1, expected 4136, errno = 1
[web:04517] Read -1, expected 4136, errno = 1
[web:04516] Read -1, expected 4136, errno = 1
[web:04518] Read -1, expected 4136, errno = 1
done (  0.0 sec)
Calculating Nuclear repulsion               ... done (  0.0 sec) ENN=     12.117311228155 Eh

SHARK setup successfully completed in   0.1 seconds

Maximum memory used throughout the entire GTOINT-calculation: 11.9 MB


           ************************************************************
           *        Program running with 4 parallel MPI-processes     *
           *              working on a common directory               *
           ************************************************************
[web:04533] Read -1, expected 651728, errno = 1
[web:04534] Read -1, expected 651728, errno = 1
[web:04535] Read -1, expected 651728, errno = 1
[web:04533] Read -1, expected 31096, errno = 1
[web:04535] Read -1, expected 31096, errno = 1
[web:04534] Read -1, expected 31096, errno = 1
-------------------------------------------------------------------------------
                                 ORCA SCF
-------------------------------------------------------------------------------

------------
SCF SETTINGS
------------
Hamiltonian:
 Ab initio Hamiltonian  Method          .... Hartree-Fock(GTOs)


General Settings:
 Integral files         IntName         .... calc
 Hartree-Fock type      HFTyp           .... RHF
 Total Charge           Charge          ....    0
 Multiplicity           Mult            ....    1
 Number of Electrons    NEL             ....   10
 Basis Dimension        Dim             ....   29
 Nuclear Repulsion      ENuc            ....     12.1173112282 Eh

Convergence Acceleration:
 DIIS                   CNVDIIS         .... on
   Start iteration      DIISMaxIt       ....    12
   Startup error        DIISStart       ....  0.200000
   # of expansion vecs  DIISMaxEq       ....     5
   Bias factor          DIISBfac        ....   1.050
   Max. coefficient     DIISMaxC        ....  10.000
 Trust-Rad. Augm. Hess. CNVTRAH         .... auto
   Auto Start mean grad. ratio tolernc. ....  1.125000
   Auto Start start iteration           ....    20
   Auto Start num. interpolation iter.  ....    10
   Max. Number of Micro iterations      ....    16
   Max. Number of Macro iterations      .... Maxiter - #DIIS iter
   Number of Davidson start vectors     ....     2
   Converg. threshold I  (grad. norm)   ....   1.000e-05
   Converg. threshold II (energy diff.) ....   1.000e-08
   Grad. Scal. Fac. for Micro threshold ....   0.100
   Minimum threshold for Micro iter.    ....   0.010
   NR start threshold (gradient norm)   ....   0.001
   Initial trust radius                 ....   0.400
   Minimum AH scaling param. (alpha)    ....   1.000
   Maximum AH scaling param. (alpha)    .... 1000.000
   Orbital update algorithm             .... Taylor
   White noise on init. David. guess    .... on
   Maximum white noise                  ....   0.010
   Quad. conv. algorithm                .... NR
 SOSCF                  CNVSOSCF        .... on
   Start iteration      SOSCFMaxIt      ....   150
   Startup grad/error   SOSCFStart      ....  0.003300
 Level Shifting         CNVShift        .... on
   Level shift para.    LevelShift      ....    0.2500
   Turn off err/grad.   ShiftErr        ....    0.0010
 Zerner damping         CNVZerner       .... off
 Static damping         CNVDamp         .... on
   Fraction old density DampFac         ....    0.7000
   Max. Damping (<1)    DampMax         ....    0.9800
   Min. Damping (>=0)   DampMin         ....    0.0000
   Turn off err/grad.   DampErr         ....    0.1000
 Fernandez-Rico         CNVRico         .... off

SCF Procedure:
 Maximum # iterations   MaxIter         ....   125
 SCF integral mode      SCFMode         .... Direct
   Integral package                     .... SHARK and LIBINT hybrid scheme
 Reset frequency        DirectResetFreq ....    20
 Integral Threshold     Thresh          ....  2.500e-11 Eh
 Primitive CutOff       TCut            ....  2.500e-12 Eh

Convergence Tolerance:
 Convergence Check Mode ConvCheckMode   .... Total+1el-Energy
 Convergence forced     ConvForced      .... 1
 Energy Change          TolE            ....  1.000e-08 Eh
 1-El. energy change                    ....  1.000e-05 Eh
 Orbital Gradient       TolG            ....  1.000e-05
 Orbital Rotation angle TolX            ....  1.000e-05
 DIIS Error             TolErr          ....  5.000e-07


Diagonalization of the overlap matrix:
[web:04534] Read -1, expected 4136, errno = 1
[web:04533] Read -1, expected 4136, errno = 1
[web:04535] Read -1, expected 4136, errno = 1
Smallest eigenvalue                        ... 3.144e-02
Time for diagonalization                   ...    0.000 sec
Threshold for overlap eigenvalues          ... 1.000e-08
Number of eigenvalues below threshold      ... 0
Time for construction of square roots      ...    0.000 sec
Total time needed                          ...    0.001 sec

[web:04534] Read -1, expected 4136, errno = 1
[web:04533] Read -1, expected 4136, errno = 1
[web:04535] Read -1, expected 4136, errno = 1
[web:04534] Read -1, expected 4136, errno = 1
[web:04533] Read -1, expected 4136, errno = 1
[web:04535] Read -1, expected 4136, errno = 1
[web:04533] Read -1, expected 69824, errno = 1
[web:04535] Read -1, expected 69824, errno = 1
[web:04534] Read -1, expected 69824, errno = 1
[web:04534] Read -1, expected 26816, errno = 1
[web:04535] Read -1, expected 26816, errno = 1
[web:04532] Read -1, expected 26816, errno = 1
[web:04533] Read -1, expected 26656, errno = 1
[web:04532] Read -1, expected 26656, errno = 1
[web:04535] Read -1, expected 26656, errno = 1
[web:04533] Read -1, expected 26624, errno = 1
[web:04532] Read -1, expected 26624, errno = 1
[web:04534] Read -1, expected 26624, errno = 1
[web:04535] Read -1, expected 52368, errno = 1
[web:04533] Read -1, expected 52368, errno = 1
[web:04534] Read -1, expected 52368, errno = 1
[web:04534] Read -1, expected 20112, errno = 1
[web:04535] Read -1, expected 20112, errno = 1
[web:04532] Read -1, expected 20112, errno = 1
[web:04533] Read -1, expected 19992, errno = 1
[web:04532] Read -1, expected 19992, errno = 1
[web:04535] Read -1, expected 19992, errno = 1
[web:04532] Read -1, expected 19968, errno = 1
[web:04533] Read -1, expected 19968, errno = 1
[web:04534] Read -1, expected 19968, errno = 1
[web:04534] Read -1, expected 78280, errno = 1
[web:04533] Read -1, expected 78280, errno = 1
[web:04535] Read -1, expected 78280, errno = 1
[web:04534] Read -1, expected 78340, errno = 1
[web:04535] Read -1, expected 78340, errno = 1
[web:04535] Read -1, expected 77560, errno = 1
[web:04532] Read -1, expected 78340, errno = 1
[web:04533] Read -1, expected 77560, errno = 1
[web:04533] Read -1, expected 76744, errno = 1
[web:04532] Read -1, expected 77560, errno = 1
[web:04532] Read -1, expected 76744, errno = 1
[web:04534] Read -1, expected 76744, errno = 1
Time for model grid setup =    0.010 sec

------------------------------
INITIAL GUESS: MODEL POTENTIAL
------------------------------
Loading Hartree-Fock densities                     ... done
Calculating cut-offs                               ... done
Initializing the effective Hamiltonian             ... done
Setting up the integral package (SHARK)            ... done
Starting the Coulomb interaction                   ... [web:04533] Read -1, expected 4136, errno = 1
[web:04534] Read -1, expected 4136, errno = 1
[web:04535] Read -1, expected 4136, errno = 1
[web:04533] Read -1, expected 4136, errno = 1
[web:04534] Read -1, expected 4136, errno = 1
[web:04535] Read -1, expected 4136, errno = 1
[web:04535] Read -1, expected 5040, errno = 1
[web:04534] Read -1, expected 5040, errno = 1
[web:04533] Read -1, expected 5040, errno = 1
[web:04532] Read -1, expected 5040, errno = 1
[web:04533] Read -1, expected 5040, errno = 1
[web:04535] Read -1, expected 5040, errno = 1
[web:04532] Read -1, expected 5040, errno = 1
[web:04534] Read -1, expected 5040, errno = 1
done (   0.0 sec)
Reading the grid                                   ... done
Mapping shells                                     ... done
Starting the XC term evaluation                    ... done (   0.0 sec)
[web:04533] Read -1, expected 4136, errno = 1
[web:04535] Read -1, expected 4136, errno = 1
[web:04534] Read -1, expected 4136, errno = 1
[web:04533] Read -1, expected 4136, errno = 1
[web:04535] Read -1, expected 4136, errno = 1
[web:04534] Read -1, expected 4136, errno = 1
Transforming the Hamiltonian                       ... done (   0.0 sec)
[web:04533] Read -1, expected 4136, errno = 1
[web:04534] Read -1, expected 4136, errno = 1
[web:04535] Read -1, expected 4136, errno = 1
Diagonalizing the Hamiltonian                      ... [web:04534] Read -1, expected 4136, errno = 1
[web:04535] Read -1, expected 4136, errno = 1
[web:04533] Read -1, expected 4136, errno = 1
[web:04534] Read -1, expected 4136, errno = 1
[web:04535] Read -1, expected 4136, errno = 1
[web:04533] Read -1, expected 4136, errno = 1
done (   0.0 sec)
Back transforming the eigenvectors                 ... done (   0.0 sec)
Now organizing SCF variables                       ... done
                      ------------------
                      INITIAL GUESS DONE (   0.0 sec)
                      ------------------
[web:04533] Read -1, expected 4136, errno = 1
[web:04534] Read -1, expected 4136, errno = 1
[web:04535] Read -1, expected 4136, errno = 1
[web:04533] Read -1, expected 4136, errno = 1
[web:04534] Read -1, expected 4136, errno = 1
[web:04535] Read -1, expected 4136, errno = 1
--------------
SCF ITERATIONS
--------------
ITER       Energy         Delta-E        Max-DP      RMS-DP      [F,P]     Damp
               ***  Starting incremental Fock matrix formation  ***
[web:04535] Read -1, expected 5040, errno = 1
[web:04534] Read -1, expected 5040, errno = 1
[web:04534] Read -1, expected 5040, errno = 1
[web:04533] Read -1, expected 5040, errno = 1
[web:04533] Read -1, expected 5040, errno = 1
[web:04535] Read -1, expected 5040, errno = 1
[web:04532] Read -1, expected 5040, errno = 1
[web:04532] Read -1, expected 5040, errno = 1
[web:04534] Read -1, expected 5040, errno = 1
[web:04535] Read -1, expected 5040, errno = 1
[web:04532] Read -1, expected 5040, errno = 1
[web:04532] Read -1, expected 5040, errno = 1
[web:04533] Read -1, expected 5040, errno = 1
[web:04533] Read -1, expected 5040, errno = 1
[web:04535] Read -1, expected 5040, errno = 1
[web:04534] Read -1, expected 5040, errno = 1
[web:04535] Read -1, expected 5040, errno = 1
[web:04534] Read -1, expected 5040, errno = 1
[web:04533] Read -1, expected 5040, errno = 1
[web:04533] Read -1, expected 5040, errno = 1
[web:04532] Read -1, expected 5040, errno = 1
[web:04532] Read -1, expected 5040, errno = 1
[web:04535] Read -1, expected 5040, errno = 1
[web:04534] Read -1, expected 5040, errno = 1
[web:04535] Read -1, expected 4136, errno = 1
[web:04533] Read -1, expected 4136, errno = 1
[web:04534] Read -1, expected 4136, errno = 1
[web:04533] Read -1, expected 4136, errno = 1
[web:04535] Read -1, expected 4136, errno = 1
[web:04534] Read -1, expected 4136, errno = 1
[web:04533] Read -1, expected 4136, errno = 1
[web:04534] Read -1, expected 4136, errno = 1
[web:04535] Read -1, expected 4136, errno = 1
[web:04534] Read -1, expected 4136, errno = 1
[web:04533] Read -1, expected 4136, errno = 1
[web:04535] Read -1, expected 4136, errno = 1
[web:04533] Read -1, expected 4136, errno = 1
[web:04534] Read -1, expected 4136, errno = 1
[web:04535] Read -1, expected 4136, errno = 1
[web:04532] Read -1, expected 6728, errno = 1
[web:04532] Read -1, expected 6728, errno = 1
[web:04535] Read -1, expected 6728, errno = 1
[web:04535] Read -1, expected 6728, errno = 1
[web:04534] Read -1, expected 6728, errno = 1
[web:04534] Read -1, expected 6728, errno = 1
[web:04533] Read -1, expected 6728, errno = 1
[web:04533] Read -1, expected 6728, errno = 1
[web:04534] Read -1, expected 4136, errno = 1
[web:04533] Read -1, expected 4136, errno = 1
[web:04535] Read -1, expected 4136, errno = 1
[web:04533] Read -1, expected 4136, errno = 1
[web:04534] Read -1, expected 4136, errno = 1
[web:04535] Read -1, expected 4136, errno = 1
[web:04534] Read -1, expected 4136, errno = 1
[web:04533] Read -1, expected 4136, errno = 1
[web:04535] Read -1, expected 4136, errno = 1
[web:04533] Read -1, expected 6728, errno = 1
[web:04534] Read -1, expected 6728, errno = 1
[web:04535] Read -1, expected 6728, errno = 1
[web:04534] Read -1, expected 4136, errno = 1
[web:04533] Read -1, expected 4136, errno = 1
[web:04535] Read -1, expected 4136, errno = 1
[web:04533] Read -1, expected 4136, errno = 1
[web:04534] Read -1, expected 4136, errno = 1
[web:04535] Read -1, expected 4136, errno = 1
  0    -56.0458726838   0.000000000000 0.08582610  0.00590139  0.3351676 0.7000
[web:04534] Read -1, expected 4136, errno = 1
[web:04533] Read -1, expected 4136, errno = 1
[web:04535] Read -1, expected 4136, errno = 1
[web:04534] Read -1, expected 5040, errno = 1
[web:04535] Read -1, expected 5040, errno = 1
[web:04532] Read -1, expected 5040, errno = 1
[web:04532] Read -1, expected 5040, errno = 1
[web:04533] Read -1, expected 5040, errno = 1
[web:04533] Read -1, expected 5040, errno = 1
[web:04534] Read -1, expected 5040, errno = 1
[web:04535] Read -1, expected 5040, errno = 1
[web:04534] Read -1, expected 5040, errno = 1
[web:04535] Read -1, expected 5040, errno = 1
[web:04532] Read -1, expected 5040, errno = 1
[web:04532] Read -1, expected 5040, errno = 1
[web:04533] Read -1, expected 5040, errno = 1
[web:04533] Read -1, expected 5040, errno = 1
[web:04535] Read -1, expected 5040, errno = 1
[web:04534] Read -1, expected 5040, errno = 1
[web:04533] Read -1, expected 5040, errno = 1
[web:04532] Read -1, expected 5040, errno = 1
[web:04534] Read -1, expected 5040, errno = 1
[web:04534] Read -1, expected 5040, errno = 1
[web:04533] Read -1, expected 5040, errno = 1
[web:04535] Read -1, expected 5040, errno = 1
[web:04535] Read -1, expected 5040, errno = 1
[web:04532] Read -1, expected 5040, errno = 1
[web:04533] Read -1, expected 4136, errno = 1
[web:04535] Read -1, expected 4136, errno = 1
[web:04534] Read -1, expected 4136, errno = 1
[web:04533] Read -1, expected 4136, errno = 1
[web:04535] Read -1, expected 4136, errno = 1
[web:04534] Read -1, expected 4136, errno = 1
[web:04534] Read -1, expected 4136, errno = 1
[web:04533] Read -1, expected 4136, errno = 1
[web:04535] Read -1, expected 4136, errno = 1
[web:04534] Read -1, expected 4136, errno = 1
[web:04535] Read -1, expected 4136, errno = 1
[web:04533] Read -1, expected 4136, errno = 1
[web:04533] Read -1, expected 4136, errno = 1
[web:04534] Read -1, expected 4136, errno = 1
[web:04535] Read -1, expected 4136, errno = 1
[web:04534] Read -1, expected 6728, errno = 1
[web:04534] Read -1, expected 6728, errno = 1
[web:04533] Read -1, expected 6728, errno = 1
[web:04533] Read -1, expected 6728, errno = 1
[web:04532] Read -1, expected 6728, errno = 1
[web:04532] Read -1, expected 6728, errno = 1
[web:04535] Read -1, expected 6728, errno = 1
[web:04535] Read -1, expected 6728, errno = 1
[web:04534] Read -1, expected 4136, errno = 1
[web:04533] Read -1, expected 4136, errno = 1
[web:04535] Read -1, expected 4136, errno = 1
[web:04533] Read -1, expected 4136, errno = 1
[web:04534] Read -1, expected 4136, errno = 1
[web:04535] Read -1, expected 4136, errno = 1
[web:04534] Read -1, expected 4136, errno = 1
[web:04533] Read -1, expected 4136, errno = 1
[web:04535] Read -1, expected 4136, errno = 1
[web:04533] Read -1, expected 6728, errno = 1
[web:04534] Read -1, expected 6728, errno = 1
[web:04535] Read -1, expected 6728, errno = 1
[web:04534] Read -1, expected 4136, errno = 1
[web:04533] Read -1, expected 4136, errno = 1
[web:04535] Read -1, expected 4136, errno = 1
[web:04533] Read -1, expected 4136, errno = 1
[web:04534] Read -1, expected 4136, errno = 1
[web:04535] Read -1, expected 4136, errno = 1
  1    -56.0993757018  -0.053503017948 0.06113809  0.00422800  0.2076355 0.7000
[web:04534] Read -1, expected 4136, errno = 1
[web:04533] Read -1, expected 4136, errno = 1
[web:04535] Read -1, expected 4136, errno = 1
[web:04534] Read -1, expected 5040, errno = 1
[web:04535] Read -1, expected 5040, errno = 1
[web:04532] Read -1, expected 5040, errno = 1
[web:04532] Read -1, expected 5040, errno = 1
[web:04533] Read -1, expected 5040, errno = 1
[web:04533] Read -1, expected 5040, errno = 1
[web:04535] Read -1, expected 5040, errno = 1
[web:04534] Read -1, expected 5040, errno = 1
[web:04535] Read -1, expected 5040, errno = 1
[web:04534] Read -1, expected 5040, errno = 1
[web:04533] Read -1, expected 5040, errno = 1
[web:04533] Read -1, expected 5040, errno = 1
[web:04532] Read -1, expected 5040, errno = 1
[web:04532] Read -1, expected 5040, errno = 1
[web:04534] Read -1, expected 5040, errno = 1
[web:04535] Read -1, expected 5040, errno = 1
[web:04534] Read -1, expected 5040, errno = 1
[web:04535] Read -1, expected 5040, errno = 1
[web:04532] Read -1, expected 5040, errno = 1
[web:04532] Read -1, expected 5040, errno = 1
[web:04533] Read -1, expected 5040, errno = 1
[web:04533] Read -1, expected 5040, errno = 1
[web:04535] Read -1, expected 5040, errno = 1
[web:04534] Read -1, expected 5040, errno = 1
[web:04533] Read -1, expected 4136, errno = 1
[web:04535] Read -1, expected 4136, errno = 1
[web:04534] Read -1, expected 4136, errno = 1
[web:04533] Read -1, expected 4136, errno = 1
[web:04534] Read -1, expected 4136, errno = 1
[web:04535] Read -1, expected 4136, errno = 1
[web:04534] Read -1, expected 4136, errno = 1
[web:04533] Read -1, expected 4136, errno = 1
[web:04535] Read -1, expected 4136, errno = 1
[web:04533] Read -1, expected 4136, errno = 1
[web:04534] Read -1, expected 4136, errno = 1
[web:04535] Read -1, expected 4136, errno = 1
[web:04534] Read -1, expected 4136, errno = 1
[web:04533] Read -1, expected 4136, errno = 1
[web:04535] Read -1, expected 4136, errno = 1
[web:04532] Read -1, expected 6728, errno = 1
[web:04532] Read -1, expected 6728, errno = 1
[web:04534] Read -1, expected 6728, errno = 1
[web:04534] Read -1, expected 6728, errno = 1
[web:04535] Read -1, expected 6728, errno = 1
[web:04535] Read -1, expected 6728, errno = 1
[web:04533] Read -1, expected 6728, errno = 1
[web:04533] Read -1, expected 6728, errno = 1
                               ***Turning on DIIS***
[web:04533] Read -1, expected 4136, errno = 1
[web:04534] Read -1, expected 4136, errno = 1
[web:04535] Read -1, expected 4136, errno = 1
[web:04534] Read -1, expected 4136, errno = 1
[web:04533] Read -1, expected 4136, errno = 1
[web:04535] Read -1, expected 4136, errno = 1
[web:04534] Read -1, expected 4136, errno = 1
[web:04533] Read -1, expected 4136, errno = 1
[web:04535] Read -1, expected 4136, errno = 1
[web:04534] Read -1, expected 6728, errno = 1
[web:04533] Read -1, expected 6728, errno = 1
[web:04535] Read -1, expected 6728, errno = 1
[web:04533] Read -1, expected 4136, errno = 1
[web:04534] Read -1, expected 4136, errno = 1
[web:04535] Read -1, expected 4136, errno = 1
[web:04534] Read -1, expected 4136, errno = 1
[web:04533] Read -1, expected 4136, errno = 1
[web:04535] Read -1, expected 4136, errno = 1
  2    -56.1289297554  -0.029554053655 0.03519103  0.00247678  0.1169264 0.7000
[web:04533] Read -1, expected 4136, errno = 1
[web:04534] Read -1, expected 4136, errno = 1
[web:04535] Read -1, expected 4136, errno = 1
[web:04534] Read -1, expected 5040, errno = 1
[web:04535] Read -1, expected 5040, errno = 1
[web:04532] Read -1, expected 5040, errno = 1
[web:04532] Read -1, expected 5040, errno = 1
[web:04533] Read -1, expected 5040, errno = 1
[web:04533] Read -1, expected 5040, errno = 1
[web:04534] Read -1, expected 5040, errno = 1
[web:04535] Read -1, expected 5040, errno = 1
[web:04535] Read -1, expected 5040, errno = 1
[web:04534] Read -1, expected 5040, errno = 1
[web:04532] Read -1, expected 5040, errno = 1
[web:04532] Read -1, expected 5040, errno = 1
[web:04533] Read -1, expected 5040, errno = 1
[web:04533] Read -1, expected 5040, errno = 1
[web:04535] Read -1, expected 5040, errno = 1
[web:04534] Read -1, expected 5040, errno = 1
[web:04534] Read -1, expected 5040, errno = 1
[web:04535] Read -1, expected 5040, errno = 1
[web:04532] Read -1, expected 5040, errno = 1
[web:04532] Read -1, expected 5040, errno = 1
[web:04533] Read -1, expected 5040, errno = 1
[web:04533] Read -1, expected 5040, errno = 1
[web:04534] Read -1, expected 5040, errno = 1
[web:04535] Read -1, expected 5040, errno = 1
[web:04533] Read -1, expected 4136, errno = 1
[web:04534] Read -1, expected 4136, errno = 1
[web:04535] Read -1, expected 4136, errno = 1
[web:04534] Read -1, expected 4136, errno = 1
[web:04533] Read -1, expected 4136, errno = 1
[web:04535] Read -1, expected 4136, errno = 1
[web:04533] Read -1, expected 4136, errno = 1
[web:04534] Read -1, expected 4136, errno = 1
[web:04535] Read -1, expected 4136, errno = 1
[web:04534] Read -1, expected 4136, errno = 1
[web:04533] Read -1, expected 4136, errno = 1
[web:04535] Read -1, expected 4136, errno = 1
[web:04533] Read -1, expected 4136, errno = 1
[web:04534] Read -1, expected 4136, errno = 1
[web:04535] Read -1, expected 4136, errno = 1
[web:04534] Read -1, expected 6728, errno = 1
[web:04533] Read -1, expected 6728, errno = 1
[web:04532] Read -1, expected 6728, errno = 1
[web:04535] Read -1, expected 6728, errno = 1
[web:04532] Read -1, expected 6728, errno = 1
[web:04534] Read -1, expected 6728, errno = 1
[web:04533] Read -1, expected 6728, errno = 1
[web:04535] Read -1, expected 6728, errno = 1
[web:04534] Read -1, expected 4136, errno = 1
[web:04533] Read -1, expected 4136, errno = 1
[web:04535] Read -1, expected 4136, errno = 1
[web:04534] Read -1, expected 4136, errno = 1
[web:04533] Read -1, expected 4136, errno = 1
[web:04535] Read -1, expected 4136, errno = 1
[web:04533] Read -1, expected 4136, errno = 1
[web:04534] Read -1, expected 4136, errno = 1
[web:04535] Read -1, expected 4136, errno = 1
[web:04534] Read -1, expected 4136, errno = 1
[web:04533] Read -1, expected 4136, errno = 1
[web:04535] Read -1, expected 4136, errno = 1
[web:04534] Read -1, expected 4136, errno = 1
[web:04533] Read -1, expected 4136, errno = 1
[web:04535] Read -1, expected 4136, errno = 1
[web:04534] Read -1, expected 4136, errno = 1
[web:04533] Read -1, expected 4136, errno = 1
[web:04535] Read -1, expected 4136, errno = 1
[web:04534] Read -1, expected 4136, errno = 1
[web:04533] Read -1, expected 4136, errno = 1
[web:04535] Read -1, expected 4136, errno = 1
[web:04533] Read -1, expected 4136, errno = 1
[web:04534] Read -1, expected 4136, errno = 1
[web:04535] Read -1, expected 4136, errno = 1
[web:04533] Read -1, expected 6728, errno = 1
[web:04534] Read -1, expected 6728, errno = 1
[web:04535] Read -1, expected 6728, errno = 1
[web:04533] Read -1, expected 4136, errno = 1
[web:04534] Read -1, expected 4136, errno = 1
[web:04535] Read -1, expected 4136, errno = 1
[web:04533] Read -1, expected 4136, errno = 1
[web:04534] Read -1, expected 4136, errno = 1
[web:04535] Read -1, expected 4136, errno = 1
  3    -56.3239375206  -0.195007765164 0.04937807  0.00367858  0.0644746 0.0000
[web:04534] Read -1, expected 4136, errno = 1
[web:04533] Read -1, expected 4136, errno = 1
[web:04535] Read -1, expected 4136, errno = 1
[web:04534] Read -1, expected 5040, errno = 1
[web:04535] Read -1, expected 5040, errno = 1
[web:04533] Read -1, expected 5040, errno = 1
[web:04532] Read -1, expected 5040, errno = 1
[web:04532] Read -1, expected 5040, errno = 1
[web:04535] Read -1, expected 5040, errno = 1
[web:04533] Read -1, expected 5040, errno = 1
[web:04534] Read -1, expected 5040, errno = 1
[web:04534] Read -1, expected 5040, errno = 1
[web:04535] Read -1, expected 5040, errno = 1
[web:04532] Read -1, expected 5040, errno = 1
[web:04532] Read -1, expected 5040, errno = 1
[web:04533] Read -1, expected 5040, errno = 1
[web:04533] Read -1, expected 5040, errno = 1
[web:04535] Read -1, expected 5040, errno = 1
[web:04534] Read -1, expected 5040, errno = 1
[web:04534] Read -1, expected 5040, errno = 1
[web:04535] Read -1, expected 5040, errno = 1
[web:04533] Read -1, expected 5040, errno = 1
[web:04533] Read -1, expected 5040, errno = 1
[web:04532] Read -1, expected 5040, errno = 1
[web:04532] Read -1, expected 5040, errno = 1
[web:04535] Read -1, expected 5040, errno = 1
[web:04534] Read -1, expected 5040, errno = 1
[web:04534] Read -1, expected 4136, errno = 1
[web:04533] Read -1, expected 4136, errno = 1
[web:04535] Read -1, expected 4136, errno = 1
[web:04533] Read -1, expected 4136, errno = 1
[web:04534] Read -1, expected 4136, errno = 1
[web:04535] Read -1, expected 4136, errno = 1
[web:04534] Read -1, expected 4136, errno = 1
[web:04533] Read -1, expected 4136, errno = 1
[web:04535] Read -1, expected 4136, errno = 1
[web:04533] Read -1, expected 4136, errno = 1
[web:04534] Read -1, expected 4136, errno = 1
[web:04535] Read -1, expected 4136, errno = 1
[web:04533] Read -1, expected 4136, errno = 1
[web:04534] Read -1, expected 4136, errno = 1
[web:04535] Read -1, expected 4136, errno = 1
[web:04533] Read -1, expected 6728, errno = 1
[web:04534] Read -1, expected 6728, errno = 1
[web:04535] Read -1, expected 6728, errno = 1
[web:04532] Read -1, expected 6728, errno = 1
[web:04532] Read -1, expected 6728, errno = 1
[web:04533] Read -1, expected 6728, errno = 1
[web:04535] Read -1, expected 6728, errno = 1
[web:04534] Read -1, expected 6728, errno = 1
[web:04534] Read -1, expected 4136, errno = 1
[web:04533] Read -1, expected 4136, errno = 1
[web:04535] Read -1, expected 4136, errno = 1
[web:04533] Read -1, expected 4136, errno = 1
[web:04534] Read -1, expected 4136, errno = 1
[web:04535] Read -1, expected 4136, errno = 1
[web:04533] Read -1, expected 4136, errno = 1
[web:04534] Read -1, expected 4136, errno = 1
[web:04535] Read -1, expected 4136, errno = 1
[web:04534] Read -1, expected 4136, errno = 1
[web:04533] Read -1, expected 4136, errno = 1
[web:04535] Read -1, expected 4136, errno = 1
[web:04533] Read -1, expected 4136, errno = 1
[web:04534] Read -1, expected 4136, errno = 1
[web:04535] Read -1, expected 4136, errno = 1
[web:04533] Read -1, expected 4136, errno = 1
[web:04534] Read -1, expected 4136, errno = 1
[web:04535] Read -1, expected 4136, errno = 1
[web:04534] Read -1, expected 4136, errno = 1
[web:04533] Read -1, expected 4136, errno = 1
[web:04535] Read -1, expected 4136, errno = 1
[web:04534] Read -1, expected 4136, errno = 1
[web:04533] Read -1, expected 4136, errno = 1
[web:04535] Read -1, expected 4136, errno = 1
[web:04533] Read -1, expected 6728, errno = 1
[web:04534] Read -1, expected 6728, errno = 1
[web:04535] Read -1, expected 6728, errno = 1
[web:04534] Read -1, expected 4136, errno = 1
[web:04533] Read -1, expected 4136, errno = 1
[web:04535] Read -1, expected 4136, errno = 1
[web:04533] Read -1, expected 4136, errno = 1
[web:04534] Read -1, expected 4136, errno = 1
[web:04535] Read -1, expected 4136, errno = 1
  4    -56.1433690380   0.180568482599 0.00986724  0.00060267  0.0163755 0.0000
[web:04534] Read -1, expected 4136, errno = 1
[web:04533] Read -1, expected 4136, errno = 1
[web:04535] Read -1, expected 4136, errno = 1
[web:04534] Read -1, expected 5040, errno = 1
[web:04535] Read -1, expected 5040, errno = 1
[web:04532] Read -1, expected 5040, errno = 1
[web:04532] Read -1, expected 5040, errno = 1
[web:04533] Read -1, expected 5040, errno = 1
[web:04533] Read -1, expected 5040, errno = 1
[web:04534] Read -1, expected 5040, errno = 1
[web:04535] Read -1, expected 5040, errno = 1
[web:04534] Read -1, expected 5040, errno = 1
[web:04535] Read -1, expected 5040, errno = 1
[web:04532] Read -1, expected 5040, errno = 1
[web:04532] Read -1, expected 5040, errno = 1
[web:04533] Read -1, expected 5040, errno = 1
[web:04533] Read -1, expected 5040, errno = 1
[web:04534] Read -1, expected 5040, errno = 1
[web:04535] Read -1, expected 5040, errno = 1
[web:04535] Read -1, expected 5040, errno = 1
[web:04534] Read -1, expected 5040, errno = 1
[web:04532] Read -1, expected 5040, errno = 1
[web:04532] Read -1, expected 5040, errno = 1
[web:04533] Read -1, expected 5040, errno = 1
[web:04533] Read -1, expected 5040, errno = 1
[web:04535] Read -1, expected 5040, errno = 1
[web:04534] Read -1, expected 5040, errno = 1
[web:04533] Read -1, expected 4136, errno = 1
[web:04535] Read -1, expected 4136, errno = 1
[web:04534] Read -1, expected 4136, errno = 1
[web:04535] Read -1, expected 4136, errno = 1
[web:04533] Read -1, expected 4136, errno = 1
[web:04534] Read -1, expected 4136, errno = 1
[web:04534] Read -1, expected 4136, errno = 1
[web:04533] Read -1, expected 4136, errno = 1
[web:04535] Read -1, expected 4136, errno = 1
[web:04534] Read -1, expected 4136, errno = 1
[web:04533] Read -1, expected 4136, errno = 1
[web:04535] Read -1, expected 4136, errno = 1
[web:04533] Read -1, expected 4136, errno = 1
[web:04534] Read -1, expected 4136, errno = 1
[web:04535] Read -1, expected 4136, errno = 1
[web:04534] Read -1, expected 6728, errno = 1
[web:04533] Read -1, expected 6728, errno = 1
[web:04532] Read -1, expected 6728, errno = 1
[web:04535] Read -1, expected 6728, errno = 1
[web:04532] Read -1, expected 6728, errno = 1
[web:04534] Read -1, expected 6728, errno = 1
[web:04533] Read -1, expected 6728, errno = 1
[web:04535] Read -1, expected 6728, errno = 1
[web:04533] Read -1, expected 4136, errno = 1
[web:04534] Read -1, expected 4136, errno = 1
[web:04535] Read -1, expected 4136, errno = 1
[web:04534] Read -1, expected 4136, errno = 1
[web:04533] Read -1, expected 4136, errno = 1
[web:04535] Read -1, expected 4136, errno = 1
[web:04533] Read -1, expected 4136, errno = 1
[web:04534] Read -1, expected 4136, errno = 1
[web:04535] Read -1, expected 4136, errno = 1
[web:04534] Read -1, expected 4136, errno = 1
[web:04533] Read -1, expected 4136, errno = 1
[web:04535] Read -1, expected 4136, errno = 1
[web:04533] Read -1, expected 4136, errno = 1
[web:04534] Read -1, expected 4136, errno = 1
[web:04535] Read -1, expected 4136, errno = 1
[web:04533] Read -1, expected 4136, errno = 1
[web:04534] Read -1, expected 4136, errno = 1
[web:04535] Read -1, expected 4136, errno = 1
[web:04533] Read -1, expected 4136, errno = 1
[web:04534] Read -1, expected 4136, errno = 1
[web:04535] Read -1, expected 4136, errno = 1
[web:04534] Read -1, expected 4136, errno = 1
[web:04533] Read -1, expected 4136, errno = 1
[web:04535] Read -1, expected 4136, errno = 1
[web:04534] Read -1, expected 6728, errno = 1
[web:04533] Read -1, expected 6728, errno = 1
[web:04535] Read -1, expected 6728, errno = 1
[web:04534] Read -1, expected 4136, errno = 1
[web:04533] Read -1, expected 4136, errno = 1
[web:04535] Read -1, expected 4136, errno = 1
[web:04533] Read -1, expected 4136, errno = 1
[web:04534] Read -1, expected 4136, errno = 1
[web:04535] Read -1, expected 4136, errno = 1
                      *** Initiating the SOSCF procedure ***
                           *** Shutting down DIIS ***
                      *** Re-Reading the Fockian *** 
                      *** Removing any level shift *** 
ITER      Energy       Delta-E        Grad      Rot      Max-DP    RMS-DP
  5    -56.18074792  -0.0373788799  0.001775  0.001775  0.002044  0.000139
               *** Restarting incremental Fock matrix formation ***
[web:04535] Read -1, expected 5040, errno = 1
[web:04534] Read -1, expected 5040, errno = 1
[web:04532] Read -1, expected 5040, errno = 1
[web:04532] Read -1, expected 5040, errno = 1
[web:04533] Read -1, expected 5040, errno = 1
[web:04533] Read -1, expected 5040, errno = 1
[web:04535] Read -1, expected 5040, errno = 1
[web:04534] Read -1, expected 5040, errno = 1
[web:04535] Read -1, expected 5040, errno = 1
[web:04534] Read -1, expected 5040, errno = 1
[web:04533] Read -1, expected 5040, errno = 1
[web:04533] Read -1, expected 5040, errno = 1
[web:04532] Read -1, expected 5040, errno = 1
[web:04532] Read -1, expected 5040, errno = 1
[web:04535] Read -1, expected 5040, errno = 1
[web:04534] Read -1, expected 5040, errno = 1
[web:04535] Read -1, expected 5040, errno = 1
[web:04534] Read -1, expected 5040, errno = 1
[web:04532] Read -1, expected 5040, errno = 1
[web:04533] Read -1, expected 5040, errno = 1
[web:04533] Read -1, expected 5040, errno = 1
[web:04535] Read -1, expected 5040, errno = 1
[web:04534] Read -1, expected 5040, errno = 1
[web:04532] Read -1, expected 5040, errno = 1
[web:04533] Read -1, expected 4136, errno = 1
[web:04534] Read -1, expected 4136, errno = 1
[web:04535] Read -1, expected 4136, errno = 1
[web:04534] Read -1, expected 4136, errno = 1
[web:04533] Read -1, expected 4136, errno = 1
[web:04535] Read -1, expected 4136, errno = 1
[web:04534] Read -1, expected 4136, errno = 1
[web:04533] Read -1, expected 4136, errno = 1
[web:04535] Read -1, expected 4136, errno = 1
[web:04534] Read -1, expected 4136, errno = 1
[web:04533] Read -1, expected 4136, errno = 1
[web:04535] Read -1, expected 4136, errno = 1
[web:04533] Read -1, expected 4136, errno = 1
[web:04534] Read -1, expected 4136, errno = 1
[web:04535] Read -1, expected 4136, errno = 1
  6    -56.18424003  -0.0034921139  0.000550  0.000398  0.000748  0.000050
[web:04534] Read -1, expected 4136, errno = 1
[web:04533] Read -1, expected 4136, errno = 1
[web:04535] Read -1, expected 4136, errno = 1
[web:04534] Read -1, expected 5040, errno = 1
[web:04535] Read -1, expected 5040, errno = 1
[web:04533] Read -1, expected 5040, errno = 1
[web:04533] Read -1, expected 5040, errno = 1
[web:04532] Read -1, expected 5040, errno = 1
[web:04532] Read -1, expected 5040, errno = 1
[web:04535] Read -1, expected 5040, errno = 1
[web:04534] Read -1, expected 5040, errno = 1
[web:04535] Read -1, expected 5040, errno = 1
[web:04534] Read -1, expected 5040, errno = 1
[web:04532] Read -1, expected 5040, errno = 1
[web:04532] Read -1, expected 5040, errno = 1
[web:04533] Read -1, expected 5040, errno = 1
[web:04533] Read -1, expected 5040, errno = 1
[web:04534] Read -1, expected 5040, errno = 1
[web:04535] Read -1, expected 5040, errno = 1
[web:04535] Read -1, expected 5040, errno = 1
[web:04534] Read -1, expected 5040, errno = 1
[web:04533] Read -1, expected 5040, errno = 1
[web:04533] Read -1, expected 5040, errno = 1
[web:04532] Read -1, expected 5040, errno = 1
[web:04532] Read -1, expected 5040, errno = 1
[web:04535] Read -1, expected 5040, errno = 1
[web:04534] Read -1, expected 5040, errno = 1
[web:04533] Read -1, expected 4136, errno = 1
[web:04534] Read -1, expected 4136, errno = 1
[web:04535] Read -1, expected 4136, errno = 1
[web:04534] Read -1, expected 4136, errno = 1
[web:04533] Read -1, expected 4136, errno = 1
[web:04535] Read -1, expected 4136, errno = 1
[web:04533] Read -1, expected 4136, errno = 1
[web:04534] Read -1, expected 4136, errno = 1
[web:04535] Read -1, expected 4136, errno = 1
[web:04534] Read -1, expected 4136, errno = 1
[web:04533] Read -1, expected 4136, errno = 1
[web:04535] Read -1, expected 4136, errno = 1
[web:04534] Read -1, expected 4136, errno = 1
[web:04533] Read -1, expected 4136, errno = 1
[web:04535] Read -1, expected 4136, errno = 1
  7    -56.18424127  -0.0000012340  0.000151  0.000192  0.000357  0.000030
[web:04533] Read -1, expected 4136, errno = 1
[web:04534] Read -1, expected 4136, errno = 1
[web:04535] Read -1, expected 4136, errno = 1
[web:04534] Read -1, expected 5040, errno = 1
[web:04535] Read -1, expected 5040, errno = 1
[web:04533] Read -1, expected 5040, errno = 1
[web:04533] Read -1, expected 5040, errno = 1
[web:04532] Read -1, expected 5040, errno = 1
[web:04532] Read -1, expected 5040, errno = 1
[web:04535] Read -1, expected 5040, errno = 1
[web:04534] Read -1, expected 5040, errno = 1
[web:04535] Read -1, expected 5040, errno = 1
[web:04534] Read -1, expected 5040, errno = 1
[web:04533] Read -1, expected 5040, errno = 1
[web:04533] Read -1, expected 5040, errno = 1
[web:04532] Read -1, expected 5040, errno = 1
[web:04532] Read -1, expected 5040, errno = 1
[web:04535] Read -1, expected 5040, errno = 1
[web:04534] Read -1, expected 5040, errno = 1
[web:04535] Read -1, expected 5040, errno = 1
[web:04534] Read -1, expected 5040, errno = 1
[web:04533] Read -1, expected 5040, errno = 1
[web:04533] Read -1, expected 5040, errno = 1
[web:04532] Read -1, expected 5040, errno = 1
[web:04532] Read -1, expected 5040, errno = 1
[web:04535] Read -1, expected 5040, errno = 1
[web:04534] Read -1, expected 5040, errno = 1
[web:04533] Read -1, expected 4136, errno = 1
[web:04534] Read -1, expected 4136, errno = 1
[web:04535] Read -1, expected 4136, errno = 1
[web:04535] Read -1, expected 4136, errno = 1
[web:04534] Read -1, expected 4136, errno = 1
[web:04533] Read -1, expected 4136, errno = 1
[web:04533] Read -1, expected 4136, errno = 1
[web:04535] Read -1, expected 4136, errno = 1
[web:04534] Read -1, expected 4136, errno = 1
[web:04534] Read -1, expected 4136, errno = 1
[web:04533] Read -1, expected 4136, errno = 1
[web:04535] Read -1, expected 4136, errno = 1
[web:04534] Read -1, expected 4136, errno = 1
[web:04533] Read -1, expected 4136, errno = 1
[web:04535] Read -1, expected 4136, errno = 1
  8    -56.18424147  -0.0000002005  0.000045  0.000029  0.000065  0.000005
[web:04534] Read -1, expected 4136, errno = 1
[web:04533] Read -1, expected 4136, errno = 1
[web:04535] Read -1, expected 4136, errno = 1
[web:04534] Read -1, expected 5040, errno = 1
[web:04535] Read -1, expected 5040, errno = 1
[web:04533] Read -1, expected 5040, errno = 1
[web:04533] Read -1, expected 5040, errno = 1
[web:04532] Read -1, expected 5040, errno = 1
[web:04532] Read -1, expected 5040, errno = 1
[web:04534] Read -1, expected 5040, errno = 1
[web:04535] Read -1, expected 5040, errno = 1
[web:04534] Read -1, expected 5040, errno = 1
[web:04535] Read -1, expected 5040, errno = 1
[web:04533] Read -1, expected 5040, errno = 1
[web:04533] Read -1, expected 5040, errno = 1
[web:04535] Read -1, expected 5040, errno = 1
[web:04532] Read -1, expected 5040, errno = 1
[web:04532] Read -1, expected 5040, errno = 1
[web:04534] Read -1, expected 5040, errno = 1
[web:04534] Read -1, expected 5040, errno = 1
[web:04535] Read -1, expected 5040, errno = 1
[web:04532] Read -1, expected 5040, errno = 1
[web:04532] Read -1, expected 5040, errno = 1
[web:04533] Read -1, expected 5040, errno = 1
[web:04533] Read -1, expected 5040, errno = 1
[web:04535] Read -1, expected 5040, errno = 1
[web:04534] Read -1, expected 5040, errno = 1
[web:04534] Read -1, expected 4136, errno = 1
[web:04533] Read -1, expected 4136, errno = 1
[web:04535] Read -1, expected 4136, errno = 1
[web:04535] Read -1, expected 4136, errno = 1
[web:04533] Read -1, expected 4136, errno = 1
[web:04534] Read -1, expected 4136, errno = 1
[web:04534] Read -1, expected 4136, errno = 1
[web:04535] Read -1, expected 4136, errno = 1
[web:04533] Read -1, expected 4136, errno = 1
[web:04534] Read -1, expected 4136, errno = 1
[web:04535] Read -1, expected 4136, errno = 1
[web:04533] Read -1, expected 4136, errno = 1
[web:04533] Read -1, expected 4136, errno = 1
[web:04534] Read -1, expected 4136, errno = 1
[web:04535] Read -1, expected 4136, errno = 1
  9    -56.18424147  -0.0000000074  0.000011  0.000007  0.000015  0.000001
[web:04534] Read -1, expected 4136, errno = 1
[web:04533] Read -1, expected 4136, errno = 1
[web:04535] Read -1, expected 4136, errno = 1
[web:04534] Read -1, expected 5040, errno = 1
[web:04535] Read -1, expected 5040, errno = 1
[web:04533] Read -1, expected 5040, errno = 1
[web:04533] Read -1, expected 5040, errno = 1
[web:04532] Read -1, expected 5040, errno = 1
[web:04532] Read -1, expected 5040, errno = 1
[web:04534] Read -1, expected 5040, errno = 1
[web:04535] Read -1, expected 5040, errno = 1
[web:04534] Read -1, expected 5040, errno = 1
[web:04535] Read -1, expected 5040, errno = 1
[web:04532] Read -1, expected 5040, errno = 1
[web:04532] Read -1, expected 5040, errno = 1
[web:04533] Read -1, expected 5040, errno = 1
[web:04533] Read -1, expected 5040, errno = 1
[web:04535] Read -1, expected 5040, errno = 1
[web:04534] Read -1, expected 5040, errno = 1
[web:04535] Read -1, expected 5040, errno = 1
[web:04534] Read -1, expected 5040, errno = 1
[web:04533] Read -1, expected 5040, errno = 1
[web:04533] Read -1, expected 5040, errno = 1
[web:04535] Read -1, expected 5040, errno = 1
[web:04532] Read -1, expected 5040, errno = 1
[web:04532] Read -1, expected 5040, errno = 1
[web:04534] Read -1, expected 5040, errno = 1
[web:04533] Read -1, expected 4136, errno = 1
[web:04534] Read -1, expected 4136, errno = 1
[web:04535] Read -1, expected 4136, errno = 1
[web:04533] Read -1, expected 4136, errno = 1
[web:04534] Read -1, expected 4136, errno = 1
[web:04535] Read -1, expected 4136, errno = 1
[web:04534] Read -1, expected 4136, errno = 1
[web:04533] Read -1, expected 4136, errno = 1
[web:04535] Read -1, expected 4136, errno = 1
[web:04534] Read -1, expected 4136, errno = 1
[web:04533] Read -1, expected 4136, errno = 1
[web:04535] Read -1, expected 4136, errno = 1
[web:04534] Read -1, expected 4136, errno = 1
[web:04533] Read -1, expected 4136, errno = 1
[web:04535] Read -1, expected 4136, errno = 1
                 **** Energy Check signals convergence ****
              ***Rediagonalizing the Fockian in SOSCF/NRSCF***
[web:04533] Read -1, expected 4136, errno = 1
[web:04534] Read -1, expected 4136, errno = 1
[web:04535] Read -1, expected 4136, errno = 1
[web:04534] Read -1, expected 4136, errno = 1
[web:04533] Read -1, expected 4136, errno = 1
[web:04535] Read -1, expected 4136, errno = 1
[web:04533] Read -1, expected 4136, errno = 1
[web:04534] Read -1, expected 4136, errno = 1
[web:04535] Read -1, expected 4136, errno = 1
[web:04534] Read -1, expected 4136, errno = 1
[web:04533] Read -1, expected 4136, errno = 1
[web:04535] Read -1, expected 4136, errno = 1
[web:04533] Read -1, expected 4136, errno = 1
[web:04534] Read -1, expected 4136, errno = 1
[web:04535] Read -1, expected 4136, errno = 1
[web:04533] Read -1, expected 4136, errno = 1
[web:04534] Read -1, expected 4136, errno = 1
[web:04535] Read -1, expected 4136, errno = 1
[web:04534] Read -1, expected 4136, errno = 1
[web:04533] Read -1, expected 4136, errno = 1
[web:04535] Read -1, expected 4136, errno = 1
[web:04534] Read -1, expected 4136, errno = 1
[web:04533] Read -1, expected 4136, errno = 1
[web:04535] Read -1, expected 4136, errno = 1
[web:04534] Read -1, expected 4136, errno = 1
[web:04533] Read -1, expected 4136, errno = 1
[web:04535] Read -1, expected 4136, errno = 1
[web:04533] Read -1, expected 4136, errno = 1
[web:04534] Read -1, expected 4136, errno = 1
[web:04535] Read -1, expected 4136, errno = 1
[web:04533] Read -1, expected 4136, errno = 1
[web:04534] Read -1, expected 4136, errno = 1
[web:04535] Read -1, expected 4136, errno = 1

               *****************************************************
               *                     SUCCESS                       *
               *           SCF CONVERGED AFTER  10 CYCLES          *
               *****************************************************


----------------
TOTAL SCF ENERGY
----------------

Total Energy       :          -56.18424147 Eh           -1528.85094 eV

Components:
Nuclear Repulsion  :           12.11731123 Eh             329.72880 eV
Electronic Energy  :          -68.30155270 Eh           -1858.57974 eV
One Electron Energy:         -100.04150522 Eh           -2722.26775 eV
Two Electron Energy:           31.73995252 Eh             863.68802 eV

Virial components:
Potential Energy   :         -112.31749509 Eh           -3056.31442 eV
Kinetic Energy     :           56.13325361 Eh            1527.46349 eV
Virial Ratio       :            2.00090834


---------------
SCF CONVERGENCE
---------------

  Last Energy change         ...   -5.6312e-10  Tolerance :   1.0000e-08
  Last MAX-Density change    ...    2.2224e-06  Tolerance :   1.0000e-07
  Last RMS-Density change    ...    2.0045e-07  Tolerance :   5.0000e-09
  Last Orbital Gradient      ...    1.0491e-06  Tolerance :   1.0000e-05
  Last Orbital Rotation      ...    1.1161e-06  Tolerance :   1.0000e-05

[web:04534] Read -1, expected 4136, errno = 1
[web:04533] Read -1, expected 4136, errno = 1
[web:04535] Read -1, expected 4136, errno = 1
[web:04533] Read -1, expected 4136, errno = 1
[web:04534] Read -1, expected 4136, errno = 1
[web:04535] Read -1, expected 4136, errno = 1
             **** THE GBW FILE WAS UPDATED (calc.gbw) ****
             **** DENSITY calc.scfp WAS UPDATED ****
             **** ENERGY FILE WAS UPDATED (calc.en.tmp) ****
             **** THE GBW FILE WAS UPDATED (calc.gbw) ****
             **** DENSITY calc.scfp WAS UPDATED ****
----------------
ORBITAL ENERGIES
----------------

  NO   OCC          E(Eh)            E(eV) 
   0   2.0000     -15.513486      -422.1434 
   1   2.0000      -1.113141       -30.2901 
   2   2.0000      -0.637701       -17.3527 
   3   2.0000      -0.637664       -17.3517 
   4   2.0000      -0.378804       -10.3078 
   5   0.0000       0.195042         5.3074 
   6   0.0000       0.274276         7.4634 
   7   0.0000       0.274281         7.4636 
   8   0.0000       0.778071        21.1724 
   9   0.0000       0.778154        21.1746 
  10   0.0000       0.800380        21.7795 
  11   0.0000       1.002721        27.2854 
  12   0.0000       1.073078        29.1999 
  13   0.0000       1.073084        29.2001 
  14   0.0000       1.397311        38.0228 
  15   0.0000       1.406006        38.2594 
  16   0.0000       1.406044        38.2604 
  17   0.0000       1.699062        46.2338 
  18   0.0000       1.982268        53.9402 
  19   0.0000       1.982317        53.9416 
  20   0.0000       1.991198        54.1832 
  21   0.0000       2.300267        62.5935 
  22   0.0000       2.584411        70.3254 
  23   0.0000       2.584502        70.3279 
  24   0.0000       2.645074        71.9761 
  25   0.0000       2.645170        71.9787 
  26   0.0000       3.258241        88.6612 
  27   0.0000       3.302996        89.8791 
  28   0.0000       3.303100        89.8819 

                    ********************************
                    * MULLIKEN POPULATION ANALYSIS *
                    ********************************

-----------------------
MULLIKEN ATOMIC CHARGES
-----------------------
   0 N :   -0.321908
   1 H :    0.107312
   2 H :    0.107295
   3 H :    0.107302
Sum of atomic charges:    0.0000000

--------------------------------
MULLIKEN REDUCED ORBITAL CHARGES
--------------------------------
  0 N s       :     3.269264  s :     3.269264
      pz      :     1.051306  p :     4.039216
      px      :     1.187417
      py      :     1.800493
      dz2     :     0.004955  d :     0.013428
      dxz     :     0.005549
      dyz     :     0.001068
      dx2y2   :     0.000873
      dxy     :     0.000983
  1 H s       :     0.830249  s :     0.830249
      pz      :     0.009281  p :     0.062440
      px      :     0.032506
      py      :     0.020653
  2 H s       :     0.830267  s :     0.830267
      pz      :     0.028330  p :     0.062438
      px      :     0.017018
      py      :     0.017090
  3 H s       :     0.830259  s :     0.830259
      pz      :     0.029064  p :     0.062439
      px      :     0.015202
      py      :     0.018173

[web:04534] Read -1, expected 4136, errno = 1
[web:04533] Read -1, expected 4136, errno = 1
[web:04535] Read -1, expected 4136, errno = 1
[web:04533] Read -1, expected 4136, errno = 1
[web:04534] Read -1, expected 4136, errno = 1
[web:04535] Read -1, expected 4136, errno = 1

                     *******************************
                     * LOEWDIN POPULATION ANALYSIS *
                     *******************************

----------------------
LOEWDIN ATOMIC CHARGES
----------------------
   0 N :   -0.092495
   1 H :    0.030831
   2 H :    0.030832
   3 H :    0.030832

-------------------------------
LOEWDIN REDUCED ORBITAL CHARGES
-------------------------------
  0 N s       :     2.967652  s :     2.967652
      pz      :     1.135213  p :     4.080597
      px      :     1.238995
      py      :     1.706388
      dz2     :     0.016067  d :     0.044246
      dxz     :     0.017439
      dyz     :     0.003383
      dx2y2   :     0.003460
      dxy     :     0.003898
  1 H s       :     0.812073  s :     0.812073
      pz      :     0.020054  p :     0.157096
      px      :     0.073876
      py      :     0.063166
  2 H s       :     0.812080  s :     0.812080
      pz      :     0.061455  p :     0.157088
      px      :     0.040211
      py      :     0.055422
  3 H s       :     0.812077  s :     0.812077
      pz      :     0.063050  p :     0.157091
      px      :     0.036265
      py      :     0.057776

[web:04532] Read -1, expected 6728, errno = 1
[web:04535] Read -1, expected 6728, errno = 1
[web:04535] Read -1, expected 6728, errno = 1
[web:04533] Read -1, expected 6728, errno = 1
[web:04533] Read -1, expected 6728, errno = 1
[web:04534] Read -1, expected 6728, errno = 1
[web:04534] Read -1, expected 6728, errno = 1
[web:04532] Read -1, expected 6728, errno = 1
[web:04534] Read -1, expected 4136, errno = 1
[web:04533] Read -1, expected 4136, errno = 1
[web:04535] Read -1, expected 4136, errno = 1
[web:04534] Read -1, expected 4136, errno = 1
[web:04533] Read -1, expected 4136, errno = 1
[web:04535] Read -1, expected 4136, errno = 1

                      *****************************
                      * MAYER POPULATION ANALYSIS *
                      *****************************

  NA   - Mulliken gross atomic population
  ZA   - Total nuclear charge
  QA   - Mulliken gross atomic charge
  VA   - Mayer's total valence
  BVA  - Mayer's bonded valence
  FA   - Mayer's free valence

  ATOM       NA         ZA         QA         VA         BVA        FA
  0 N      7.3219     7.0000    -0.3219     3.0261     3.0261     0.0000
  1 H      0.8927     1.0000     0.1073     1.0132     1.0132     0.0000
  2 H      0.8927     1.0000     0.1073     1.0132     1.0132    -0.0000
  3 H      0.8927     1.0000     0.1073     1.0132     1.0132    -0.0000

  Mayer bond orders larger than 0.100000
B(  0-N ,  1-H ) :   1.0087 B(  0-N ,  2-H ) :   1.0087 B(  0-N ,  3-H ) :   1.0087 


-------
TIMINGS
-------

Total SCF time: 0 days 0 hours 0 min 0 sec 

Total time                  ....       0.188 sec
Sum of individual times     ....       0.064 sec  ( 34.0%)

Fock matrix formation       ....       0.038 sec  ( 20.3%)
Diagonalization             ....       0.003 sec  (  1.6%)
Density matrix formation    ....       0.000 sec  (  0.1%)
Population analysis         ....       0.001 sec  (  0.5%)
Initial guess               ....       0.005 sec  (  2.5%)
Orbital Transformation      ....       0.000 sec  (  0.0%)
Orbital Orthonormalization  ....       0.000 sec  (  0.0%)
DIIS solution               ....       0.004 sec  (  2.2%)
SOSCF solution              ....       0.002 sec  (  1.3%)

Maximum memory used throughout the entire SCF-calculation: 225.0 MB


           ************************************************************
           *        Program running with 4 parallel MPI-processes     *
           *              working on a common directory               *
           ************************************************************
[web:04550] Read -1, expected 651728, errno = 1
[web:04551] Read -1, expected 651728, errno = 1
[web:04552] Read -1, expected 651728, errno = 1
[web:04550] Read -1, expected 31096, errno = 1
[web:04551] Read -1, expected 31096, errno = 1
[web:04552] Read -1, expected 31096, errno = 1
[web:04551] Read -1, expected 7428, errno = 1
[web:04550] Read -1, expected 7428, errno = 1
[web:04552] Read -1, expected 7428, errno = 1

------------------------------------------------------------------------------
                                ORCA  MP2 
------------------------------------------------------------------------------

Freezing NCore=2 chemical core electrons

----------------------
RI-MP2 ENERGY+GRADIENT
----------------------
Dimension of the basis                    ...   29
Memory devoted to MP2                     ...  256 MB   
Data format for buffers                   ... DOUBLE
Compression type for matrix containers    ... UNCOMPRESSED
Overall scaling of the MP2 energy         ...   1.000e+00
Calculating two index integrals           ...[web:04550] Read -1, expected 19408, errno = 1
[web:04549] Read -1, expected 19400, errno = 1
[web:04552] Read -1, expected 19408, errno = 1
[web:04551] Read -1, expected 19400, errno = 1
[web:04552] Read -1, expected 9704, errno = 1
[web:04552] Read -1, expected 9704, errno = 1
[web:04551] Read -1, expected 9704, errno = 1
[web:04550] Read -1, expected 9704, errno = 1
[web:04550] Read -1, expected 9704, errno = 1
 done (    0.000 sec)
[web:04552] Read -1, expected 19400, errno = 1
[web:04550] Read -1, expected 19400, errno = 1
[web:04551] Read -1, expected 9696, errno = 1
[web:04551] Read -1, expected 19408, errno = 1
[web:04549] Read -1, expected 9696, errno = 1
[web:04549] Read -1, expected 9704, errno = 1
[web:04549] Read -1, expected 19408, errno = 1
Cholesky decomposition of the V-matrix    ... done
Cholesky decomposition of V**-1           ... done (    0.000 sec)

-----------------
RI-TRANSFORMATION (AUX index driven)
-----------------

Dimension of the orbital-basis         ... 29
Dimension of the aux-basis             ... 98
Transformation of internal MOs         ...    0-   4
Transformation of internal/external MOs...    0-   4 to    5-  28
Number Format for Storage              ... Double (8 Byte)
Integral mode                          ... Direct

First Phase: integral generation and transformation of MO indices
  Aux angular momentum 0               ... done (    0.000 sec)
  Aux angular momentum 1               ... done (    0.000 sec)
  Aux angular momentum 2               ... done (    0.000 sec)
  Aux angular momentum 3               ... done (    0.000 sec)
Closing buffer VIJ ( 0.00 GB; CompressionRatio= 0.91)
Closing buffer VIA ( 0.00 GB; CompressionRatio= 0.99)
  Phase 1 completed in     0.051 sec
Second Phase: sorting and transformation of aux index

IJ-Transformation
Memory available                       ... 216 MB 
Max. # MO pairs treated in a batch     ... 2    
# of internal orbitals                 ... 5
# batches for internal orbitals        ... 1
Closing buffer IJV ( 0.00 GB; CompressionRatio= 0.98)
(ij|v) transformation done in     0.000 sec

IA-Transformation
Memory available                       ... 216 MB 
Max. # MO pairs treated in a batch     ... 2    
# of internal orbitals                 ... 5
# batches for internal orbitals        ... 1
Closing buffer IAV ( 0.00 GB; CompressionRatio= 1.00)
(ia|v) transformation done in     0.000 sec

  Phase 2 completed in     0.001 sec
RI-Integral transformation completed in     0.052 sec
Opening buffers                              ... done
Frozen core precalculation                   ... done

Starting loop over batches of integrals:

Operator 0  - window                       ... (  1-  4)x(  5- 28)
Operator 0  - Memory available             ...   256 MB
Operator 0  - Memory needed per MO         ...   0.0 MB
Operator 0  - Number of orbitals per batch ... 1
Operator 0  - Number of batches            ... 1

OPERATOR  0   PASS   0:  MOs     1 ...    1 +    2 ...    2 +    3 ...    3 +    4 ...    4
  Reading integrals       ... ok
Time spent in pair loops =     0.007 sec
[web:04551] Read -1, expected 38416, errno = 1
[web:04552] Read -1, expected 38416, errno = 1
[web:04549] Read -1, expected 38416, errno = 1
[web:04550] Read -1, expected 38416, errno = 1
[web:04550] Read -1, expected 19208, errno = 1
[web:04549] Read -1, expected 19208, errno = 1
[web:04551] Read -1, expected 19208, errno = 1
[web:04552] Read -1, expected 19208, errno = 1
[web:04549] Read -1, expected 19208, errno = 1
[web:04551] Read -1, expected 19208, errno = 1
[web:04550] Read -1, expected 19208, errno = 1
[web:04552] Read -1, expected 19208, errno = 1
[web:04550] Read -1, expected 38416, errno = 1
[web:04549] Read -1, expected 38416, errno = 1
[web:04552] Read -1, expected 38416, errno = 1
[web:04551] Read -1, expected 38416, errno = 1
[web:04550] Read -1, expected 4608, errno = 1
[web:04550] Read -1, expected 4608, errno = 1
[web:04551] Read -1, expected 4608, errno = 1
[...]
[web:04886] Read -1, expected 6728, errno = 1
[web:04887] Read -1, expected 6728, errno = 1
[web:04887] Read -1, expected 6728, errno = 1
[web:04888] Read -1, expected 6728, errno = 1
[web:04889] Read -1, expected 6728, errno = 1
[web:04889] Read -1, expected 6728, errno = 1
[web:04887] Read -1, expected 6728, errno = 1
[web:04889] Read -1, expected 6728, errno = 1
[web:04888] Read -1, expected 6728, errno = 1
[web:04888] Read -1, expected 6728, errno = 1
[web:04886] Read -1, expected 6728, errno = 1
[web:04886] Read -1, expected 6728, errno = 1
[web:04887] Read -1, expected 6728, errno = 1
[web:04889] Read -1, expected 5040, errno = 1
[web:04888] Read -1, expected 5040, errno = 1
[web:04886] Read -1, expected 5040, errno = 1
[web:04886] Read -1, expected 5040, errno = 1
[web:04887] Read -1, expected 5040, errno = 1
[web:04887] Read -1, expected 5040, errno = 1
[web:04889] Read -1, expected 5040, errno = 1
[web:04888] Read -1, expected 5040, errno = 1
[web:04888] Read -1, expected 5040, errno = 1
[web:04889] Read -1, expected 5040, errno = 1
[web:04886] Read -1, expected 5040, errno = 1
[web:04886] Read -1, expected 5040, errno = 1
[web:04887] Read -1, expected 5040, errno = 1
[web:04887] Read -1, expected 5040, errno = 1
[web:04888] Read -1, expected 5040, errno = 1
[web:04889] Read -1, expected 5040, errno = 1
  2.8850e-04 (   0.0 sec)
     CP-SCF ITERATION   3: [web:04889] Read -1, expected 6728, errno = 1
[web:04887] Read -1, expected 6728, errno = 1
[web:04888] Read -1, expected 6728, errno = 1
[web:04886] Read -1, expected 6728, errno = 1
[web:04886] Read -1, expected 6728, errno = 1
[web:04889] Read -1, expected 6728, errno = 1
[web:04887] Read -1, expected 6728, errno = 1
[web:04887] Read -1, expected 6728, errno = 1
[web:04888] Read -1, expected 6728, errno = 1
[web:04888] Read -1, expected 6728, errno = 1
[web:04886] Read -1, expected 6728, errno = 1
[web:04886] Read -1, expected 6728, errno = 1
[web:04889] Read -1, expected 6728, errno = 1
[web:04889] Read -1, expected 6728, errno = 1
[web:04887] Read -1, expected 6728, errno = 1
[web:04888] Read -1, expected 6728, errno = 1
[web:04889] Read -1, expected 5040, errno = 1
[web:04888] Read -1, expected 5040, errno = 1
[web:04887] Read -1, expected 5040, errno = 1
[web:04887] Read -1, expected 5040, errno = 1
[web:04886] Read -1, expected 5040, errno = 1
[web:04886] Read -1, expected 5040, errno = 1
[web:04888] Read -1, expected 5040, errno = 1
[web:04889] Read -1, expected 5040, errno = 1
[web:04888] Read -1, expected 5040, errno = 1
[web:04889] Read -1, expected 5040, errno = 1
[web:04888] Read -1, expected 5040, errno = 1
[web:04889] Read -1, expected 5040, errno = 1
[web:04886] Read -1, expected 5040, errno = 1
[web:04886] Read -1, expected 5040, errno = 1
[web:04887] Read -1, expected 5040, errno = 1
[web:04887] Read -1, expected 5040, errno = 1
  2.6978e-05 (   0.0 sec)
                    *** THE CP-SCF HAS CONVERGED ***
done
Finalizing the relaxed density                   ... done
Transforming P to the AO basis                   ... done
Storing the relaxed density                      ... done

------------------------------------
ENERGY WEIGHTED DENSITY FINALIZATION
------------------------------------

Gathering the parts of the W-matrix              ... done
Forming the Z-density                            ... done
Transforming Z to the AO basis                   ... done
Calculating G(Z)                                 ... [web:04887] Read -1, expected 4136, errno = 1
[web:04888] Read -1, expected 4136, errno = 1
[web:04889] Read -1, expected 4136, errno = 1
[web:04888] Read -1, expected 4136, errno = 1
[web:04887] Read -1, expected 4136, errno = 1
[web:04889] Read -1, expected 4136, errno = 1
[web:04888] Read -1, expected 5040, errno = 1
[web:04889] Read -1, expected 5040, errno = 1
[web:04887] Read -1, expected 5040, errno = 1
[web:04887] Read -1, expected 5040, errno = 1
[web:04886] Read -1, expected 5040, errno = 1
[web:04886] Read -1, expected 5040, errno = 1
[web:04889] Read -1, expected 5040, errno = 1
[web:04888] Read -1, expected 5040, errno = 1
[web:04889] Read -1, expected 5040, errno = 1
[web:04888] Read -1, expected 5040, errno = 1
[web:04889] Read -1, expected 5040, errno = 1
[web:04888] Read -1, expected 5040, errno = 1
[web:04886] Read -1, expected 5040, errno = 1
[web:04886] Read -1, expected 5040, errno = 1
[web:04887] Read -1, expected 5040, errno = 1
[web:04887] Read -1, expected 5040, errno = 1
done
Finalizing the W-matrix                          ... done
Transforming W to the AO basis and storing       ... done

----------------------------------
MP2 DERIVATIVE INTEGRAL GENERATION
----------------------------------


Input Correlated Electron Density   ... calc.pmp2re
Input Energy Weighted Density       ... calc.wmp2.tmp
Input SCF Electron Density          ... calc.scfp

One-Electron Terms    ...
                        ... One-Electron Terms done
Prescreening matrices              ... done

                *********************************************
                * UNRELAXED MP2 DENSITY POPULATION ANALYSIS *
                *********************************************

------------------------------------------------------------------------------
                           ORCA POPULATION ANALYSIS
------------------------------------------------------------------------------
Input electron density              ... calc.pmp2ur
BaseName (.gbw .S,...)              ... calc

                    ********************************
                    * MULLIKEN POPULATION ANALYSIS *
                    ********************************

-----------------------
MULLIKEN ATOMIC CHARGES
-----------------------
   0 N :   -0.339801
   1 H :    0.113269
   2 H :    0.113265
   3 H :    0.113267
Sum of atomic charges:   -0.0000000

--------------------------------
MULLIKEN REDUCED ORBITAL CHARGES
--------------------------------
  0 N s       :     3.283939  s :     3.283939
      pz      :     1.048127  p :     4.021928
      px      :     1.183070
      py      :     1.790730
      dz2     :     0.008702  d :     0.033934
      dxz     :     0.009123
      dyz     :     0.005373
      dx2y2   :     0.005315
      dxy     :     0.005421
  1 H s       :     0.823235  s :     0.823235
      pz      :     0.009867  p :     0.063496
      px      :     0.032342
      py      :     0.021286
  2 H s       :     0.823240  s :     0.823240
      pz      :     0.028235  p :     0.063495
      px      :     0.017408
      py      :     0.017852
  3 H s       :     0.823238  s :     0.823238
      pz      :     0.028942  p :     0.063496
      px      :     0.015657
      py      :     0.018896


                     *******************************
                     * LOEWDIN POPULATION ANALYSIS *
                     *******************************

----------------------
LOEWDIN ATOMIC CHARGES
----------------------
   0 N :   -0.103675
   1 H :    0.034559
   2 H :    0.034558
   3 H :    0.034558

-------------------------------
LOEWDIN REDUCED ORBITAL CHARGES
-------------------------------
  0 N s       :     2.978767  s :     2.978767
      pz      :     1.127213  p :     4.059908
      px      :     1.231514
      py      :     1.701180
      dz2     :     0.019924  d :     0.065000
      dxz     :     0.020887
      dyz     :     0.007539
      dx2y2   :     0.008085
      dxy     :     0.008566
  1 H s       :     0.807764  s :     0.807764
      pz      :     0.020361  p :     0.157677
      px      :     0.074919
      py      :     0.062397
  2 H s       :     0.807766  s :     0.807766
      pz      :     0.062606  p :     0.157676
      px      :     0.040572
      py      :     0.054498
  3 H s       :     0.807765  s :     0.807765
      pz      :     0.064234  p :     0.157677
      px      :     0.036545
      py      :     0.056898


                      *****************************
                      * MAYER POPULATION ANALYSIS *
                      *****************************

  NA   - Mulliken gross atomic population
  ZA   - Total nuclear charge
  QA   - Mulliken gross atomic charge
  VA   - Mayer's total valence
  BVA  - Mayer's bonded valence
  FA   - Mayer's free valence

  ATOM       NA         ZA         QA         VA         BVA        FA
  0 N      7.3398     7.0000    -0.3398     3.1906     2.9045     0.2861
  1 H      0.8867     1.0000     0.1133     1.0180     0.9718     0.0463
  2 H      0.8867     1.0000     0.1133     1.0181     0.9718     0.0463
  3 H      0.8867     1.0000     0.1133     1.0181     0.9718     0.0463

  Mayer bond orders larger than 0.100000
B(  0-N ,  1-H ) :   0.9682 B(  0-N ,  2-H ) :   0.9682 B(  0-N ,  3-H ) :   0.9682 



                *******************************************
                * RELAXED MP2 DENSITY POPULATION ANALYSIS *
                *******************************************

------------------------------------------------------------------------------
                           ORCA POPULATION ANALYSIS
------------------------------------------------------------------------------
Input electron density              ... calc.pmp2re
BaseName (.gbw .S,...)              ... calc

                    ********************************
                    * MULLIKEN POPULATION ANALYSIS *
                    ********************************

-----------------------
MULLIKEN ATOMIC CHARGES
-----------------------
   0 N :   -0.324313
   1 H :    0.108106
   2 H :    0.108103
   3 H :    0.108104
Sum of atomic charges:   -0.0000000

--------------------------------
MULLIKEN REDUCED ORBITAL CHARGES
--------------------------------
  0 N s       :     3.269400  s :     3.269400
      pz      :     1.049015  p :     4.022106
      px      :     1.183576
      py      :     1.789516
      dz2     :     0.008240  d :     0.032806
      dxz     :     0.008507
      dyz     :     0.005259
      dx2y2   :     0.005345
      dxy     :     0.005456
  1 H s       :     0.830515  s :     0.830515
      pz      :     0.010618  p :     0.061379
      px      :     0.029558
      py      :     0.021203
  2 H s       :     0.830518  s :     0.830518
      pz      :     0.025940  p :     0.061379
      px      :     0.017101
      py      :     0.018338
  3 H s       :     0.830517  s :     0.830517
      pz      :     0.026530  p :     0.061379
      px      :     0.015641
      py      :     0.019208


                     *******************************
                     * LOEWDIN POPULATION ANALYSIS *
                     *******************************

----------------------
LOEWDIN ATOMIC CHARGES
----------------------
   0 N :   -0.104898
   1 H :    0.034966
   2 H :    0.034966
   3 H :    0.034966

-------------------------------
LOEWDIN REDUCED ORBITAL CHARGES
-------------------------------
  0 N s       :     2.974884  s :     2.974884
      pz      :     1.131741  p :     4.067588
      px      :     1.235134
      py      :     1.700713
      dz2     :     0.018936  d :     0.062425
      dxz     :     0.019700
      dyz     :     0.007314
      dx2y2   :     0.008002
      dxy     :     0.008473
  1 H s       :     0.809170  s :     0.809170
      pz      :     0.020804  p :     0.155863
      px      :     0.072692
      py      :     0.062368
  2 H s       :     0.809172  s :     0.809172
      pz      :     0.060723  p :     0.155862
      px      :     0.040237
      py      :     0.054903
  3 H s       :     0.809171  s :     0.809171
      pz      :     0.062261  p :     0.155863
      px      :     0.036431
      py      :     0.057171


                      *****************************
                      * MAYER POPULATION ANALYSIS *
                      *****************************

  NA   - Mulliken gross atomic population
  ZA   - Total nuclear charge
  QA   - Mulliken gross atomic charge
  VA   - Mayer's total valence
  BVA  - Mayer's bonded valence
  FA   - Mayer's free valence

  ATOM       NA         ZA         QA         VA         BVA        FA
  0 N      7.3243     7.0000    -0.3243     3.2000     2.9150     0.2850
  1 H      0.8919     1.0000     0.1081     1.0207     0.9746     0.0461
  2 H      0.8919     1.0000     0.1081     1.0207     0.9746     0.0461
  3 H      0.8919     1.0000     0.1081     1.0207     0.9746     0.0461

  Mayer bond orders larger than 0.100000
B(  0-N ,  1-H ) :   0.9717 B(  0-N ,  2-H ) :   0.9717 B(  0-N ,  3-H ) :   0.9717 



-------
TIMINGS
-------

Total time                :    0.446 sec
Integral trafo            :    0.063 sec ( 14.1%)
FC preparation            :    0.002 sec (  0.5%)
I/O of integrals          :    0.000 sec (  0.0%)
K(i,j) Operators          :    0.000 sec (  0.0%)
T(i,j) pair energies      :    0.000 sec (  0.0%)
V-calculation             :    0.000 sec (  0.0%)
V**(-1/2)                 :    0.000 sec (  0.0%)
Gamma(ia|P)               :    0.000 sec (  0.0%)
Gamma-Trafo               :    0.000 sec (  0.0%)
D(virtual)                :    0.000 sec (  0.0%)
D(internal)               :    0.000 sec (  0.0%)
W(virtual)                :    0.000 sec (  0.0%)
W(internal)               :    0.000 sec (  0.0%)
L(virtual)                :    0.002 sec (  0.5%)
L(internal)               :    0.000 sec (  0.0%)
G(D)                      :    0.079 sec ( 17.8%)
G(Z)                      :    0.076 sec ( 17.1%)
Z-Vector Solution         :    0.032 sec (  7.2%)
3-Index Derivative        :    0.004 sec (  1.0%)
2-Index Derivative        :    0.000 sec (  0.0%)
Separable Gradient        :    0.153 sec ( 34.3%)


---------------------------------------
MP2 TOTAL ENERGY:      -56.369317772 Eh
---------------------------------------

The final MP2 gradient
  0:   0.00000259   0.00000417  -0.00000217
  1:   0.00000052  -0.00000074   0.00000134
  2:  -0.00000105  -0.00000155  -0.00000033
  3:  -0.00000206  -0.00000187   0.00000116

-----------------------------------
NORM OF THE MP2 GRADIENT:  0.000007
-----------------------------------

Maximum memory used throughout the entire MP2-calculation: 117.6 MB

-------------------------   --------------------
FINAL SINGLE POINT ENERGY       -56.369317772040
-------------------------   --------------------

                                *** OPTIMIZATION RUN DONE ***

                            ***************************************
                            *     ORCA property calculations      *
                            ***************************************

                                    ---------------------
                                    Active property flags
                                    ---------------------
   (+) Dipole Moment


------------------------------------------------------------------------------
                       ORCA ELECTRIC PROPERTIES CALCULATION
------------------------------------------------------------------------------

Dipole Moment Calculation                       ... on
Quadrupole Moment Calculation                   ... off
Polarizability Calculation                      ... off
GBWName                                         ... calc.gbw
Electron density                                ... calc.scfp
The origin for moment calculation is the CENTER OF MASS  = ( 2.055288, -0.642417 -0.018354)

-------------
DIPOLE MOMENT
-------------
                                X             Y             Z
Electronic contribution:      0.00001       0.00000      -0.00001
Nuclear contribution   :     -0.00002      -0.00001       0.00001
                        -----------------------------------------
Total Dipole Moment    :     -0.00000      -0.00001       0.00000
                        -----------------------------------------
Magnitude (a.u.)       :      0.00001
Magnitude (Debye)      :      0.00003



--------------------
Rotational spectrum 
--------------------
 
Rotational constants in cm-1:    11.086293    11.085913     5.543052 
Rotational constants in MHz : 332358.707097 332347.310997 166176.504475 

 Dipole components along the rotational axes: 
x,y,z [a.u.] :    -0.000005     0.000004     0.000009 
x,y,z [Debye]:    -0.000013     0.000011     0.000022 

 

                         *** MP2 UNRELAXED DENSITY ***

------------------------------------------------------------------------------
                       ORCA ELECTRIC PROPERTIES CALCULATION
------------------------------------------------------------------------------

Dipole Moment Calculation                       ... on
Quadrupole Moment Calculation                   ... off
Polarizability Calculation                      ... off
GBWName                                         ... calc.gbw
Electron density                                ... calc.pmp2ur
The origin for moment calculation is the CENTER OF MASS  = ( 2.055288, -0.642417 -0.018354)

-------------
DIPOLE MOMENT
-------------
                                X             Y             Z
Electronic contribution:      0.00001       0.00000      -0.00001
Nuclear contribution   :     -0.00002      -0.00001       0.00001
                        -----------------------------------------
Total Dipole Moment    :     -0.00000      -0.00001       0.00000
                        -----------------------------------------
Magnitude (a.u.)       :      0.00001
Magnitude (Debye)      :      0.00003



--------------------
Rotational spectrum 
--------------------
 
Rotational constants in cm-1:    11.086293    11.085913     5.543052 
Rotational constants in MHz : 332358.707097 332347.310997 166176.504475 

 Dipole components along the rotational axes: 
x,y,z [a.u.] :    -0.000005     0.000004     0.000009 
x,y,z [Debye]:    -0.000013     0.000011     0.000022 

 

                           *** MP2 RELAXED DENSITY ***

------------------------------------------------------------------------------
                       ORCA ELECTRIC PROPERTIES CALCULATION
------------------------------------------------------------------------------

Dipole Moment Calculation                       ... on
Quadrupole Moment Calculation                   ... off
Polarizability Calculation                      ... off
GBWName                                         ... calc.gbw
Electron density                                ... calc.pmp2re
The origin for moment calculation is the CENTER OF MASS  = ( 2.055288, -0.642417 -0.018354)

-------------
DIPOLE MOMENT
-------------
                                X             Y             Z
Electronic contribution:      0.00001       0.00000      -0.00001
Nuclear contribution   :     -0.00002      -0.00001       0.00001
                        -----------------------------------------
Total Dipole Moment    :     -0.00000      -0.00001       0.00000
                        -----------------------------------------
Magnitude (a.u.)       :      0.00001
Magnitude (Debye)      :      0.00003



--------------------
Rotational spectrum 
--------------------
 
Rotational constants in cm-1:    11.086293    11.085913     5.543052 
Rotational constants in MHz : 332358.707097 332347.310997 166176.504475 

 Dipole components along the rotational axes: 
x,y,z [a.u.] :    -0.000005     0.000004     0.000009 
x,y,z [Debye]:    -0.000013     0.000011     0.000022 

 
[web:04909] Read -1, expected 651728, errno = 1
[web:04910] Read -1, expected 651728, errno = 1
[web:04908] Read -1, expected 651728, errno = 1

Timings for individual modules:

Sum of individual times         ...       11.091 sec (=   0.185 min)
GTO integral calculation        ...        2.701 sec (=   0.045 min)  24.4 %
SCF iterations                  ...        3.086 sec (=   0.051 min)  27.8 %
MP2 module                      ...        5.220 sec (=   0.087 min)  47.1 %
Geometry relaxation             ...        0.084 sec (=   0.001 min)   0.8 %
                             ****ORCA TERMINATED NORMALLY****
TOTAL RUN TIME: 0 days 0 hours 0 minutes 12 seconds 902 msec
