
                                 *****************
                                 * O   R   C   A *
                                 *****************

                                            #,                                       
                                            ###                                      
                                            ####                                     
                                            #####                                    
                                            ######                                   
                                           ########,                                 
                                     ,,################,,,,,                         
                               ,,#################################,,                 
                          ,,##########################################,,             
                       ,#########################################, ''#####,          
                    ,#############################################,,   '####,        
                  ,##################################################,,,,####,       
                ,###########''''           ''''###############################       
              ,#####''   ,,,,##########,,,,          '''####'''          '####       
            ,##' ,,,,###########################,,,                        '##       
           ' ,,###''''                  '''############,,,                           
         ,,##''                                '''############,,,,        ,,,,,,###''
      ,#''                                            '''#######################'''  
     '                                                          ''''####''''         
             ,#######,   #######,   ,#######,      ##                                
            ,#'     '#,  ##    ##  ,#'     '#,    #''#        ######   ,####,        
            ##       ##  ##   ,#'  ##            #'  '#       #        #'  '#        
            ##       ##  #######   ##           ,######,      #####,   #    #        
            '#,     ,#'  ##    ##  '#,     ,#' ,#      #,         ##   #,  ,#        
             '#######'   ##     ##  '#######'  #'      '#     #####' # '####'        



                  #######################################################
                  #                        -***-                        #
                  #          Department of theory and spectroscopy      #
                  #    Directorship and core code : Frank Neese         #
                  #        Max Planck Institute fuer Kohlenforschung    #
                  #                Kaiser Wilhelm Platz 1               #
                  #                 D-45470 Muelheim/Ruhr               #
                  #                      Germany                        #
                  #                                                     #
                  #                  All rights reserved                #
                  #                        -***-                        #
                  #######################################################


                         Program Version 5.0.3 -  RELEASE  -


 With contributions from (in alphabetic order):
   Daniel Aravena         : Magnetic Suceptibility
   Michael Atanasov       : Ab Initio Ligand Field Theory (pilot matlab implementation)
   Alexander A. Auer      : GIAO ZORA, VPT2 properties, NMR spectrum
   Ute Becker             : Parallelization
   Giovanni Bistoni       : ED, misc. LED, open-shell LED, HFLD
   Martin Brehm           : Molecular dynamics
   Dmytro Bykov           : SCF Hessian
   Vijay G. Chilkuri      : MRCI spin determinant printing, contributions to CSF-ICE
   Dipayan Datta          : RHF DLPNO-CCSD density
   Achintya Kumar Dutta   : EOM-CC, STEOM-CC
   Dmitry Ganyushin       : Spin-Orbit,Spin-Spin,Magnetic field MRCI
   Miquel Garcia          : C-PCM and meta-GGA Hessian, CC/C-PCM, Gaussian charge scheme
   Yang Guo               : DLPNO-NEVPT2, F12-NEVPT2, CIM, IAO-localization
   Andreas Hansen         : Spin unrestricted coupled pair/coupled cluster methods
   Benjamin Helmich-Paris : MC-RPA, TRAH-SCF, COSX integrals
   Lee Huntington         : MR-EOM, pCC
   Robert Izsak           : Overlap fitted RIJCOSX, COSX-SCS-MP3, EOM
   Marcus Kettner         : VPT2
   Christian Kollmar      : KDIIS, OOCD, Brueckner-CCSD(T), CCSD density, CASPT2, CASPT2-K
   Simone Kossmann        : Meta GGA functionals, TD-DFT gradient, OOMP2, MP2 Hessian
   Martin Krupicka        : Initial AUTO-CI
   Lucas Lang             : DCDCAS
   Marvin Lechner         : AUTO-CI (C++ implementation), FIC-MRCC
   Dagmar Lenk            : GEPOL surface, SMD
   Dimitrios Liakos       : Extrapolation schemes; Compound Job, initial MDCI parallelization
   Dimitrios Manganas     : Further ROCIS development; embedding schemes
   Dimitrios Pantazis     : SARC Basis sets
   Anastasios Papadopoulos: AUTO-CI, single reference methods and gradients
   Taras Petrenko         : DFT Hessian,TD-DFT gradient, ASA, ECA, R-Raman, ABS, FL, XAS/XES, NRVS
   Peter Pinski           : DLPNO-MP2, DLPNO-MP2 Gradient
   Christoph Reimann      : Effective Core Potentials
   Marius Retegan         : Local ZFS, SOC
   Christoph Riplinger    : Optimizer, TS searches, QM/MM, DLPNO-CCSD(T), (RO)-DLPNO pert. Triples
   Tobias Risthaus        : Range-separated hybrids, TD-DFT gradient, RPA, STAB
   Michael Roemelt        : Original ROCIS implementation
   Masaaki Saitow         : Open-shell DLPNO-CCSD energy and density
   Barbara Sandhoefer     : DKH picture change effects
   Avijit Sen             : IP-ROCIS
   Kantharuban Sivalingam : CASSCF convergence, NEVPT2, FIC-MRCI
   Bernardo de Souza      : ESD, SOC TD-DFT
   Georgi Stoychev        : AutoAux, RI-MP2 NMR, DLPNO-MP2 response
   Willem Van den Heuvel  : Paramagnetic NMR
   Boris Wezisla          : Elementary symmetry handling
   Frank Wennmohs         : Technical directorship


 We gratefully acknowledge several colleagues who have allowed us to
 interface, adapt or use parts of their codes:
   Stefan Grimme, W. Hujo, H. Kruse, P. Pracht,  : VdW corrections, initial TS optimization,
                  C. Bannwarth, S. Ehlert          DFT functionals, gCP, sTDA/sTD-DF
   Ed Valeev, F. Pavosevic, A. Kumar             : LibInt (2-el integral package), F12 methods
   Garnet Chan, S. Sharma, J. Yang, R. Olivares  : DMRG
   Ulf Ekstrom                                   : XCFun DFT Library
   Mihaly Kallay                                 : mrcc  (arbitrary order and MRCC methods)
   Jiri Pittner, Ondrej Demel                    : Mk-CCSD
   Frank Weinhold                                : gennbo (NPA and NBO analysis)
   Christopher J. Cramer and Donald G. Truhlar   : smd solvation model
   Lars Goerigk                                  : TD-DFT with DH, B97 family of functionals
   V. Asgeirsson, H. Jonsson                     : NEB implementation
   FAccTs GmbH                                   : IRC, NEB, NEB-TS, DLPNO-Multilevel, CI-OPT
                                                   MM, QMMM, 2- and 3-layer-ONIOM, Crystal-QMMM,
                                                   LR-CPCM, SF, NACMEs, symmetry and pop. for TD-DFT,
                                                   nearIR, NL-DFT gradient (VV10), updates on ESD,
                                                   ML-optimized integration grids
   S Lehtola, MJT Oliveira, MAL Marques          : LibXC Library
   Liviu Ungur et al                             : ANISO software


 Your calculation uses the libint2 library for the computation of 2-el integrals
 For citations please refer to: http://libint.valeyev.net

 Your ORCA version has been built with support for libXC version: 5.1.0
 For citations please refer to: https://tddft.org/programs/libxc/

 This ORCA versions uses:
   CBLAS   interface :  Fast vector & matrix operations
   LAPACKE interface :  Fast linear algebra routines
   SCALAPACK package :  Parallel linear algebra routines
   Shared memory     :  Shared parallel matrices
   BLAS/LAPACK       :  OpenBLAS 0.3.15  USE64BITINT DYNAMIC_ARCH NO_AFFINITY Zen SINGLE_THREADED
        Core in use  :  Zen
   Copyright (c) 2011-2014, The OpenBLAS Project


leaving
================================================================================

----- Orbital basis set information -----
================================================================================
                                        WARNINGS
                       Please study these warnings very carefully!
================================================================================


WARNING: Direct SCF is incompatible with Method<>HF and Method<>DFT
  ===> : conventional SCF is chosen

WARNING: The NDO methods need Guess=HUECKEL or Guess=HCORE or Guess=MOREAD
  ===> : Guess is set to Hueckel

WARNING: The NDO methods need %rel::SOCType==1
  ===> : %rel::SOCType is set to 1

WARNING: The NDO methods cannot have frozencore=1
  ===> : %method FrozenCore=0 end

WARNING: The NDO methods cannot be used with Shark
  ===> : Turning Shark off

WARNING: Geometry Optimization
  ===> : Switching off AutoStart
         For restart on a previous wavefunction, please use MOREAD
================================================================================
                                       INPUT FILE
================================================================================
NAME = calc.inp
|  1> !OPT AM1
|  2> *xyz 0 1
|  3> C    4.29180000   3.65880000   0.00000000
|  4> H    4.64850000   2.65000000   0.00000000
|  5> H    4.64850000   4.16320000   0.87070000
|  6> H    4.64850000   4.16320000  -0.87970000
|  7> H    3.22180000   3.65880000   0.00000000
|  8> *
|  9> %geom Scan
| 10> B 0 1 = 3.50, 1.50, 5
| 11> end
| 12> end
| 13> %MaxCore 2000
| 14> %pal
| 15> nprocs 1
| 16> endd                         ****END OF INPUT****
================================================================================

                       ******************************
                       *    Relaxed Surface Scan    *
                       ******************************

                      Bond (  1,   0):   range=   3.50000000 ..   1.50000000  steps =    5

There is 1 parameter to be scanned.
There will be    5 constrained geometry optimizations.


         *************************************************************
         *               RELAXED SURFACE SCAN STEP   1               *
         *                                                           *
         *                 Bond (  1,   0)  :   3.50000000           *
         *************************************************************

Geometry optimization settings:
Update method            Update   .... BFGS
Choice of coordinates    CoordSys .... Z-matrix Internals
Initial Hessian          InHess   .... Almoef's Model

Convergence Tolerances:
Energy Change            TolE     ....  5.0000e-06 Eh
Max. Gradient            TolMAXG  ....  3.0000e-04 Eh/bohr
RMS Gradient             TolRMSG  ....  1.0000e-04 Eh/bohr
Max. Displacement        TolMAXD  ....  4.0000e-03 bohr
RMS Displacement         TolRMSD  ....  2.0000e-03 bohr
Strict Convergence                ....  False
------------------------------------------------------------------------------
                        ORCA OPTIMIZATION COORDINATE SETUP
------------------------------------------------------------------------------

The optimization will be done in new redundant internal coordinates
Making redundant internal coordinates   ...  (new redundants) done
Evaluating the initial hessian          ...  (Almloef) done
Evaluating the coordinates              ...  done
Calculating the B-matrix                .... done
Calculating the G-matrix                .... done
Diagonalizing the G-matrix              .... done
Imposing constraints:
 Iter   0:  RMS(Cart)=    0.0461879910 RMS(Int)=    4.3920236152
 Iter   1:  RMS(Cart)=    0.0461879910 RMS(Int)=    4.1920236056
 Iter   2:  RMS(Cart)=    0.0461879910 RMS(Int)=    3.9920235915
 Iter   3:  RMS(Cart)=    0.0461879910 RMS(Int)=    3.7920235738
 Iter   4:  RMS(Cart)=    0.0461879910 RMS(Int)=    3.5920235531
 Iter   5:  RMS(Cart)=    0.0461879910 RMS(Int)=    3.3920235301
 Iter   6:  RMS(Cart)=    0.0461879910 RMS(Int)=    3.1920235052
 Iter   7:  RMS(Cart)=    0.0461879910 RMS(Int)=    2.9920234786
 Iter   8:  RMS(Cart)=    0.0461879910 RMS(Int)=    2.7920234506
 Iter   9:  RMS(Cart)=    0.0461879910 RMS(Int)=    2.5920234215
 Iter  10:  RMS(Cart)=    0.0461879910 RMS(Int)=    2.3920233914
 Iter  11:  RMS(Cart)=    0.0461879910 RMS(Int)=    2.1920233604
 Iter  12:  RMS(Cart)=    0.0461879910 RMS(Int)=    1.9920233287
 Iter  13:  RMS(Cart)=    0.0461879910 RMS(Int)=    1.7920232963
 Iter  14:  RMS(Cart)=    0.0461879910 RMS(Int)=    1.5920232634
 Iter  15:  RMS(Cart)=    0.0461879910 RMS(Int)=    1.3920232299
 Iter  16:  RMS(Cart)=    0.0461879910 RMS(Int)=    1.1920231960
 Iter  17:  RMS(Cart)=    0.0461879910 RMS(Int)=    0.9920231616
 Iter  18:  RMS(Cart)=    0.0461879910 RMS(Int)=    0.7920231269
 Iter  19:  RMS(Cart)=    0.0461879910 RMS(Int)=    0.5920230919
 Iter  20:  RMS(Cart)=    0.0461879910 RMS(Int)=    0.3920230566
 Iter  21:  RMS(Cart)=    0.0461879910 RMS(Int)=    0.1920230210
 Iter  22:  RMS(Cart)=    0.0443457878 RMS(Int)=    0.0000000344
 Iter  23:  RMS(Cart)=    0.0000000079 RMS(Int)=    0.0000000000
CONVERGED
The first mode is                       ....    1
The number of degrees of freedom        ....    9
Storing new coordinates                 .... done

    -----------------------------------------------------------------
                    Redundant Internal Coordinates


    -----------------------------------------------------------------
         Definition                    Initial Value    Approx d2E/dq
    -----------------------------------------------------------------
      1. B(H   1,C   0)                  3.5000         0.387545 C 
      2. B(H   2,C   0)                  1.0676         0.390984   
      3. B(H   3,C   0)                  1.0750         0.380564   
      4. B(H   4,C   0)                  1.0700         0.387554   
      5. A(H   2,C   0,H   3)          109.5645         0.297222   
      6. A(H   1,C   0,H   4)          109.4735         0.297664   
      7. A(H   2,C   0,H   4)          109.5186         0.298082   
      8. A(H   3,C   0,H   4)          109.3797         0.296808   
      9. A(H   1,C   0,H   2)          109.5640         0.298081   
     10. A(H   1,C   0,H   3)          109.3266         0.296807   
    -----------------------------------------------------------------

Number of atoms                         .... 5
Number of degrees of freedom            .... 10

         *************************************************************
         *                GEOMETRY OPTIMIZATION CYCLE   1            *
         *************************************************************
---------------------------------
CARTESIAN COORDINATES (ANGSTROEM)
---------------------------------
  C      4.129785    4.117001   -0.000000
  H      5.296542    0.817202    0.001530
  H      4.486077    4.622571    0.870190
  H      4.486911    4.620211   -0.880210
  H      3.059785    4.117015   -0.000510

----------------------------
CARTESIAN COORDINATES (A.U.)
----------------------------
  NO LB      ZA    FRAG     MASS         X           Y           Z
   0 C     4.0000    0    12.011    7.804163    7.780005   -0.000000
   1 H     1.0000    0     1.008   10.009013    1.544288    0.002892
   2 H     1.0000    0     1.008    8.477456    8.735393    1.644421
   3 H     1.0000    0     1.008    8.479033    8.730933   -1.663356
   4 H     1.0000    0     1.008    5.782156    7.780031   -0.000964

--------------------------------
INTERNAL COORDINATES (ANGSTROEM)
--------------------------------
 C      0   0   0     0.000000000000     0.00000000     0.00000000
 H      1   0   0     1.070005761667     0.00000000     0.00000000
 H      1   2   0     1.067601395653   109.51505982     0.00000000
 H      1   2   3     1.074954110648   109.37622264   120.08276913
 H      1   2   3     1.070000000000   109.47300474   239.91392657

---------------------------
INTERNAL COORDINATES (A.U.)
---------------------------
 C      0   0   0     0.000000000000     0.00000000     0.00000000
 H      1   0   0     2.022017851268     0.00000000     0.00000000
 H      1   2   0     2.017474257976   109.51505982     0.00000000
 H      1   2   3     2.031368875658   109.37622264   120.08276913
 H      1   2   3     2.022006963296   109.47300474   239.91392657

----------------------------
SLATER BASIS SET DIM=   8
----------------------------
  0 C     2 shells
 l=0 nsto= 1
    2       1.808665000000        1.000000000000
 l=1 nsto= 1
    2       1.685116000000        1.000000000000
  1 H     1 shells
 l=0 nsto= 1
    1       1.188078000000        1.000000000000
  2 H     1 shells
 l=0 nsto= 1
    1       1.188078000000        1.000000000000
  3 H     1 shells
 l=0 nsto= 1
    1       1.188078000000        1.000000000000
  4 H     1 shells
 l=0 nsto= 1
    1       1.188078000000        1.000000000000
------------------------------------------------------------------------------
                           ORCA NDO INTEGRAL CALCULATION
------------------------------------------------------------------------------

--------------
NDO PARAMETERS
--------------

Gamma integral treatment              ... MOPAC
Nuclear repulsuion treatment          ... AM1-style
Interaction factors:
s-s (sigma) =    1.0000
s-p (sigma) =    1.0000
s-d (sigma) =    1.0000
p-p (sigma) =    1.0000  p-p(pi) =    1.0000
p-d (sigma) =    1.0000  p-d(pi) =    1.0000
d-d (sigma) =    1.0000  d-d(pi) =    1.0000 d-d (delta) =    1.0000

--------------------------
Parameters for Element H :
--------------------------
 One-electron parameters (in eV)
  U(s)  =   -11.396427 Beta(s) =     6.173787 Neff(s) =     1.000000
 One-center electron repulsion parameters (in eV)
  G(s,s)=    12.848000
--------------------------
Parameters for Element C :
--------------------------
 One-electron parameters (in eV)
  U(s)  =   -52.028658 Beta(s) =    15.715783 Neff(s) =     2.000000
  U(p)  =   -39.614239 Beta(p) =     7.719283 Neff(p) =     2.000000 
 One-center electron repulsion parameters (in eV)
  G(s,s)=    12.230000
  G(s,p)=    11.470000 G(p,p)  =    10.253300
 Slater-Condon parameters (in eV)
 F2(p,p)=     5.1667 G1(s,p)=    7.2900

 Number of atoms                    ....    5
 Number of basis functions          ....    8

 Overlap integrals                  .... done
 One electron matrix                .... done
 Nuclear repulsion                  .... done
 Integral list                      .... done
 Electron-electron repulsion        .... done
-------------------------------------------------------------------------------
                                 ORCA SCF
-------------------------------------------------------------------------------

------------
SCF SETTINGS
------------
Hamiltonian:
 ZDO-Hamiltonian        Method          .... NDDO


General Settings:
 Integral files         IntName         .... calc
 Hartree-Fock type      HFTyp           .... RHF
 Total Charge           Charge          ....    0
 Multiplicity           Mult            ....    1
 Number of Electrons    NEL             ....    8
 Basis Dimension        Dim             ....    8
 Nuclear Repulsion      ENuc            ....      6.2468263111 Eh

Convergence Acceleration:
 DIIS                   CNVDIIS         .... on
   Start iteration      DIISMaxIt       ....    12
   Startup error        DIISStart       ....  0.200000
   # of expansion vecs  DIISMaxEq       ....     5
   Bias factor          DIISBfac        ....   1.050
   Max. coefficient     DIISMaxC        ....  10.000
 Trust-Rad. Augm. Hess. CNVTRAH         .... off
 SOSCF                  CNVSOSCF        .... on
   Start iteration      SOSCFMaxIt      ....   150
   Startup grad/error   SOSCFStart      ....  0.003300
 Level Shifting         CNVShift        .... on
   Level shift para.    LevelShift      ....    0.2500
   Turn off err/grad.   ShiftErr        ....    0.0010
 Zerner damping         CNVZerner       .... off
 Static damping         CNVDamp         .... on
   Fraction old density DampFac         ....    0.7000
   Max. Damping (<1)    DampMax         ....    0.9800
   Min. Damping (>=0)   DampMin         ....    0.0000
   Turn off err/grad.   DampErr         ....    0.1000
 Fernandez-Rico         CNVRico         .... off

SCF Procedure:
 Maximum # iterations   MaxIter         ....   125
 SCF integral mode      SCFMode         .... Conventional
 Integral Buffer length BufferLength    .... 1048576
 Integral index format  IndFormat       ....     0
 Integral value format  ValFormat       ....     0
 Integral Storage       Thresh          ....  2.500e-11 Eh

Convergence Tolerance:
 Convergence Check Mode ConvCheckMode   .... Total+1el-Energy
 Convergence forced     ConvForced      .... 0
 Energy Change          TolE            ....  1.000e-08 Eh
 1-El. energy change                    ....  1.000e-05 Eh
 Orbital Gradient       TolG            ....  1.000e-05
 Orbital Rotation angle TolX            ....  1.000e-05
 DIIS Error             TolErr          ....  5.000e-07


Diagonalization of the overlap matrix:
Smallest eigenvalue                        ... 2.699e-01
Time for diagonalization                   ...    0.000 sec
Threshold for overlap eigenvalues          ... 1.000e-08
Number of eigenvalues below threshold      ... 0
Time for construction of square roots      ...    0.000 sec
Total time needed                          ...    0.000 sec

-------------------------------
INITIAL GUESS: EXTENDED HUECKEL
-------------------------------
EHT matrix was read from disk
EHT matrix was diagonalized
Initial density was built
                      ------------------
                      INITIAL GUESS DONE
                      ------------------

 InCore treatment chosen:
   Memory dedicated               ...    2000 MB
   Memory needed                  ...      0 MB
   Number of tiny    integrals    ...       1
   Number of small   integrals    ...       0
   Number of regular integrals    ...      65

--------------
SCF ITERATIONS
--------------
ITER       Energy         Delta-E        Max-DP      RMS-DP      [F,P]     Damp
  0     -6.2525845557   0.000000000000 0.09300949  0.01527939  0.0698370 0.7000
  1     -6.2652591602  -0.012674604454 0.18070571  0.03505150  0.0605948 0.7000
                               ***Turning on DIIS***
  2     -6.3006939593  -0.035434799130 0.83200986  0.15105232  0.0949607 0.0000
  3     -6.4716530204  -0.170959061118 0.01403730  0.00364377  0.0146288 0.0000
  4     -6.4525038919   0.019149128509 0.00859768  0.00192986  0.0083269 0.0000
  5     -6.4411392239   0.011364667978 0.00917977  0.00156029  0.0064327 0.0000
  6     -6.4341213036   0.007017920330 0.00722567  0.00120723  0.0040499 0.0000
                      *** Initiating the SOSCF procedure ***
                           *** Shutting down DIIS ***
                      *** Re-Reading the Fockian *** 
                      *** Removing any level shift *** 
ITER      Energy       Delta-E        Grad      Rot      Max-DP    RMS-DP
  7     -6.43160759   0.0025137095  0.000755  0.000755  0.003675  0.000643
  8     -6.42740976   0.0041978308  0.000741  0.004584  0.009168  0.001455
  9     -6.42741084  -0.0000010744  0.000635  0.002052  0.004105  0.000658
 10     -6.42741365  -0.0000028095  0.000063  0.000097  0.000194  0.000045
 11     -6.42741369  -0.0000000385  0.000028  0.000084  0.000168  0.000041
 12     -6.42741370  -0.0000000110  0.000003  0.000007  0.000006  0.000002
                 **** Energy Check signals convergence ****
              ***Rediagonalizing the Fockian in SOSCF/NRSCF***

               *****************************************************
               *                     SUCCESS                       *
               *           SCF CONVERGED AFTER  13 CYCLES          *
               *****************************************************


----------------
TOTAL SCF ENERGY
----------------

Total Energy       :           -6.42741370 Eh            -174.89882 eV

Components:
Nuclear Repulsion  :            6.24682631 Eh             169.98479 eV
Electronic Energy  :          -12.67424001 Eh            -344.88360 eV
One Electron Energy:          -20.79635978 Eh            -565.89772 eV
Two Electron Energy:            8.12211977 Eh             221.01412 eV


---------------
SCF CONVERGENCE
---------------

  Last Energy change         ...   -7.5170e-11  Tolerance :   1.0000e-08
  Last MAX-Density change    ...    4.4151e-06  Tolerance :   1.0000e-07
  Last RMS-Density change    ...    1.4472e-06  Tolerance :   5.0000e-09
  Last Orbital Gradient      ...    1.3801e-06  Tolerance :   1.0000e-05
  Last Orbital Rotation      ...    5.6406e-06  Tolerance :   1.0000e-05

             **** THE GBW FILE WAS UPDATED (calc.gbw) ****
             **** DENSITY calc.scfp WAS UPDATED ****
             **** ENERGY FILE WAS UPDATED (calc.en.tmp) ****
             **** THE GBW FILE WAS UPDATED (calc.gbw) ****
             **** DENSITY calc.scfp WAS UPDATED ****
----------------
ORBITAL ENERGIES
----------------

  NO   OCC          E(Eh)            E(eV) 
   0   2.0000      -1.019336       -27.7375 
   1   2.0000      -0.500113       -13.6088 
   2   2.0000      -0.499199       -13.5839 
   3   2.0000      -0.257412        -7.0045 
   4   0.0000      -0.095791        -2.6066 
   5   0.0000       0.174929         4.7601 
   6   0.0000       0.175833         4.7847 
   7   0.0000       0.184940         5.0325 

                    ********************************
                    * MULLIKEN POPULATION ANALYSIS *
                    ********************************

-----------------------
MULLIKEN ATOMIC CHARGES
-----------------------
   0 C :   -0.359773
   1 H :    0.002033
   2 H :    0.119901
   3 H :    0.118632
   4 H :    0.119206
Sum of atomic charges:   -0.0000000

--------------------------------
MULLIKEN REDUCED ORBITAL CHARGES
--------------------------------
  0 C s       :     1.564094  s :     1.564094
      pz      :     0.946657  p :     2.795679
      px      :     0.941821
      py      :     0.907201
  1 H s       :     0.997967  s :     0.997967
  2 H s       :     0.880099  s :     0.880099
  3 H s       :     0.881368  s :     0.881368
  4 H s       :     0.880794  s :     0.880794


                     *******************************
                     * LOEWDIN POPULATION ANALYSIS *
                     *******************************

----------------------
LOEWDIN ATOMIC CHARGES
----------------------
   0 C :   -0.218149
   1 H :    0.002020
   2 H :    0.072212
   3 H :    0.072012
   4 H :    0.071905

-------------------------------
LOEWDIN REDUCED ORBITAL CHARGES
-------------------------------
  0 C s       :     1.324030  s :     1.324030
      pz      :     0.996155  p :     2.894119
      px      :     0.985923
      py      :     0.912041
  1 H s       :     0.997980  s :     0.997980
  2 H s       :     0.927788  s :     0.927788
  3 H s       :     0.927988  s :     0.927988
  4 H s       :     0.928095  s :     0.928095


                      *****************************
                      * MAYER POPULATION ANALYSIS *
                      *****************************

  NA   - Mulliken gross atomic population
  ZA   - Total nuclear charge
  QA   - Mulliken gross atomic charge
  VA   - Mayer's total valence
  BVA  - Mayer's bonded valence
  FA   - Mayer's free valence

  ATOM       NA         ZA         QA         VA         BVA        FA
  0 C      6.2026     4.0000    -2.2026     2.1338     9.2350    -7.1012
  1 H      1.0107     1.0000    -0.0107     0.9999     1.0443    -0.0444
  2 H      1.5558     1.0000    -0.5558     0.6911     2.8524    -2.1614
  3 H      1.5516     1.0000    -0.5516     0.6958     2.8360    -2.1402
  4 H      1.5547     1.0000    -0.5547     0.6924     2.8478    -2.1554

  Mayer bond orders larger than 0.100000
B(  0-C ,  1-H ) :   0.9871 B(  0-C ,  2-H ) :   2.7562 B(  0-C ,  3-H ) :   2.7404 
B(  0-C ,  4-H ) :   2.7513 

-------
TIMINGS
-------

Total SCF time: 0 days 0 hours 0 min 0 sec 

Total time                  ....       0.115 sec
Sum of individual times     ....       0.010 sec  (  8.6%)

Fock matrix formation       ....       0.009 sec  (  7.8%)
Diagonalization             ....       0.000 sec  (  0.1%)
Density matrix formation    ....       0.000 sec  (  0.0%)
Population analysis         ....       0.000 sec  (  0.3%)
Initial guess               ....       0.000 sec  (  0.1%)
Orbital Transformation      ....       0.000 sec  (  0.0%)
Orbital Orthonormalization  ....       0.000 sec  (  0.0%)
DIIS solution               ....       0.000 sec  (  0.2%)
SOSCF solution              ....       0.000 sec  (  0.1%)

Maximum memory used throughout the entire SCF-calculation: 222.8 MB

-------------------------   --------------------
FINAL SINGLE POINT ENERGY        -6.427413696690
-------------------------   --------------------

------------------------------------------------------------------------------
                          SCF GRADIENT FOR NDO METHODS
------------------------------------------------------------------------------

The cartesian gradient:
   1   C   :    0.008308364   -0.025765045    0.004369921
   2   H   :    0.006268160   -0.017726325    0.000004346
   3   H   :   -0.019658302    0.008480201   -0.026828987
   4   H   :   -0.017687894    0.010930797    0.022452017
   5   H   :    0.022769671    0.024080371    0.000002702

Norm of the cartesian gradient     ...    0.065714469
RMS gradient                       ...    0.016967403
MAX gradient                       ...    0.026828987
------------------------------------------------------------------------------
                         ORCA GEOMETRY RELAXATION STEP
------------------------------------------------------------------------------

Reading the OPT-File                    .... done
Getting information on internals        .... done
Copying old internal coords+grads       .... done
Making the new internal coordinates     .... (new redundants).... done
Validating the new internal coordinates .... (new redundants).... done
Calculating the B-matrix                .... done
Calculating the G,G- and P matrices     .... done
Transforming gradient to internals      .... done
Projecting the internal gradient        .... done
Number of atoms                         ....   5
Number of internal coordinates          ....  10
Current Energy                          ....    -6.427413697 Eh
Current gradient norm                   ....     0.065714469 Eh/bohr
Maximum allowed component of the step   ....  0.300
Current trust radius                    ....  0.300
Evaluating the initial hessian          ....  (Almloef) done
Projecting the Hessian                  .... done
Forming the augmented Hessian           .... done
Diagonalizing the augmented Hessian     .... done
Last element of RFO vector              ....  0.963025477
Lowest eigenvalues of augmented Hessian:
 -0.019324118  0.116597537  0.116697030  0.222294790  0.296994952
Length of the computed step             ....  0.279754116
The final length of the internal step   ....  0.279754116
Converting the step to cartesian space:
 Initial RMS(Int)=    0.0884660190
Transforming coordinates:
 Iter   0:  RMS(Cart)=    0.0765868330 RMS(Int)=    0.0842104693
 Iter   1:  RMS(Cart)=    0.0064814121 RMS(Int)=    0.0083211223
 Iter   2:  RMS(Cart)=    0.0009662929 RMS(Int)=    0.0012850844
 Iter   3:  RMS(Cart)=    0.0001047763 RMS(Int)=    0.0001391698
 Iter   4:  RMS(Cart)=    0.0000077797 RMS(Int)=    0.0000097955
 Iter   5:  RMS(Cart)=    0.0000005568 RMS(Int)=    0.0000005943
 Iter   6:  RMS(Cart)=    0.0000001093 RMS(Int)=    0.0000001412
 Iter   7:  RMS(Cart)=    0.0000000161 RMS(Int)=    0.0000000215
Imposing constraints:
 Iter   0:  RMS(Cart)=    0.0000000000 RMS(Int)=    0.0000000000
CONVERGED
done
Storing new coordinates                 .... done

                                .--------------------.
          ----------------------|Geometry convergence|-------------------------
          Item                value                   Tolerance       Converged
          ---------------------------------------------------------------------
          RMS gradient        0.0224258776            0.0001000000      NO
          MAX gradient        0.0244609906            0.0003000000      NO
          RMS step            0.0884660190            0.0020000000      NO
          MAX step            0.1077556468            0.0040000000      NO
          ........................................................
          Max(Bonds)      0.0315      Max(Angles)    6.17
          Max(Dihed)        0.00      Max(Improp)    0.00
          ---------------------------------------------------------------------

The optimization has not yet converged - more geometry cycles are needed


    ---------------------------------------------------------------------------
                         Redundant Internal Coordinates
                            (Angstroem and degrees)

        Definition                    Value    dE/dq     Step     New-Value
    ----------------------------------------------------------------------------
     1. B(H   1,C   0)                3.5000  0.018802  0.0000    3.5000 C 
     2. B(H   2,C   0)                1.0676 -0.024413  0.0315    1.0991   
     3. B(H   3,C   0)                1.0750 -0.019144  0.0253    1.1003   
     4. B(H   4,C   0)                1.0700 -0.022769  0.0296    1.0996   
     5. A(H   2,C   0,H   3)          109.56 -0.024101    6.12    115.69   
     6. A(H   1,C   0,H   4)          109.47  0.024308   -6.15    103.32   
     7. A(H   2,C   0,H   4)          109.52 -0.024461    6.17    115.69   
     8. A(H   3,C   0,H   4)          109.38 -0.024370    6.17    115.55   
     9. A(H   1,C   0,H   2)          109.56  0.024387   -6.17    103.39   
    10. A(H   1,C   0,H   3)          109.33  0.024282   -6.15    103.18   
    ----------------------------------------------------------------------------

         *************************************************************
         *                GEOMETRY OPTIMIZATION CYCLE   2            *
         *************************************************************
---------------------------------
CARTESIAN COORDINATES (ANGSTROEM)
---------------------------------
  C      4.107456    4.180413   -0.001379
  H      5.274262    0.880631    0.000985
  H      4.531706    4.592272    0.925108
  H      4.530552    4.586602   -0.932311
  H      3.015124    4.054082   -0.001404

----------------------------
CARTESIAN COORDINATES (A.U.)
----------------------------
  NO LB      ZA    FRAG     MASS         X           Y           Z
   0 C     4.0000    0    12.011    7.761967    7.899835   -0.002605
   1 H     1.0000    0     1.008    9.966910    1.664152    0.001862
   2 H     1.0000    0     1.008    8.563683    8.678136    1.748201
   3 H     1.0000    0     1.008    8.561503    8.667422   -1.761812
   4 H     1.0000    0     1.008    5.697758    7.661104   -0.002654

--------------------------------
INTERNAL COORDINATES (ANGSTROEM)
--------------------------------
 C      0   0   0     0.000000000000     0.00000000     0.00000000
 H      1   0   0     3.500000000675     0.00000000     0.00000000
 H      1   2   0     1.099087640564   102.94641848     0.00000000
 H      1   2   3     1.100288372202   102.73410726   120.03651778
 H      1   2   3     1.099613490130   102.87653643   239.90187552

---------------------------
INTERNAL COORDINATES (A.U.)
---------------------------
 C      0   0   0     0.000000000000     0.00000000     0.00000000
 H      1   0   0     6.614041470000     0.00000000     0.00000000
 H      1   2   0     2.076974637843   102.94641848     0.00000000
 H      1   2   3     2.079243691800   102.73410726   120.03651778
 H      1   2   3     2.077968349512   102.87653643   239.90187552

------------------------------------------------------------------------------
                           ORCA NDO INTEGRAL CALCULATION
------------------------------------------------------------------------------

--------------
NDO PARAMETERS
--------------

Gamma integral treatment              ... MOPAC
Nuclear repulsuion treatment          ... AM1-style
Interaction factors:
s-s (sigma) =    1.0000
s-p (sigma) =    1.0000
s-d (sigma) =    1.0000
p-p (sigma) =    1.0000  p-p(pi) =    1.0000
p-d (sigma) =    1.0000  p-d(pi) =    1.0000
d-d (sigma) =    1.0000  d-d(pi) =    1.0000 d-d (delta) =    1.0000

--------------------------
Parameters for Element H :
--------------------------
 One-electron parameters (in eV)
  U(s)  =   -11.396427 Beta(s) =     6.173787 Neff(s) =     1.000000
 One-center electron repulsion parameters (in eV)
  G(s,s)=    12.848000
--------------------------
Parameters for Element C :
--------------------------
 One-electron parameters (in eV)
  U(s)  =   -52.028658 Beta(s) =    15.715783 Neff(s) =     2.000000
  U(p)  =   -39.614239 Beta(p) =     7.719283 Neff(p) =     2.000000 
 One-center electron repulsion parameters (in eV)
  G(s,s)=    12.230000
  G(s,p)=    11.470000 G(p,p)  =    10.253300
 Slater-Condon parameters (in eV)
 F2(p,p)=     5.1667 G1(s,p)=    7.2900

 Number of atoms                    ....    5
 Number of basis functions          ....    8

 Overlap integrals                  .... done
 One electron matrix                .... done
 Nuclear repulsion                  .... done
 Integral list                      .... done
 Electron-electron repulsion        .... done

Diagonalization of the overlap matrix:
Smallest eigenvalue                        ... 2.986e-01
Time for diagonalization                   ...    0.000 sec
Threshold for overlap eigenvalues          ... 1.000e-08
Number of eigenvalues below threshold      ... 0
Time for construction of square roots      ...    0.000 sec
Total time needed                          ...    0.000 sec


 InCore treatment chosen:
   Memory dedicated               ...    2000 MB
   Memory needed                  ...      0 MB
   Number of tiny    integrals    ...       0
   Number of small   integrals    ...       0
   Number of regular integrals    ...      66

--------------
SCF ITERATIONS
--------------
ITER       Energy         Delta-E        Max-DP      RMS-DP      [F,P]     Damp
  0     -6.4386873814   0.000000000000 0.00886017  0.00214122  0.0230473 0.7000
  1     -6.4391583179  -0.000470936420 0.01066006  0.00245171  0.0198143 0.7000
                               ***Turning on DIIS***
  2     -6.4396010801  -0.000442762258 0.03085877  0.00730184  0.0164798 0.0000
  3     -6.4476392129  -0.008038132760 0.01527813  0.00359099  0.0069690 0.0000
  4     -6.4412126488   0.006426564063 0.00685047  0.00178189  0.0032848 0.0000
  5     -6.4410965073   0.000116141512 0.00447495  0.00127733  0.0016377 0.0000
                      *** Initiating the SOSCF procedure ***
                           *** Shutting down DIIS ***
                      *** Re-Reading the Fockian *** 
                      *** Removing any level shift *** 
ITER      Energy       Delta-E        Grad      Rot      Max-DP    RMS-DP
  6     -6.44129286  -0.0001963563  0.001745  0.001745  0.003507  0.001048
  7     -6.44134320  -0.0000503360  0.000031  0.000100  0.000221  0.000044
  8     -6.44134321  -0.0000000147  0.000017  0.000075  0.000136  0.000033
                 **** Energy Check signals convergence ****
              ***Rediagonalizing the Fockian in SOSCF/NRSCF***

               *****************************************************
               *                     SUCCESS                       *
               *           SCF CONVERGED AFTER   9 CYCLES          *
               *****************************************************

Total Energy       :           -6.44134322 Eh            -175.27786 eV
  Last Energy change         ...   -6.7254e-09  Tolerance :   1.0000e-08
  Last MAX-Density change    ...    7.7333e-06  Tolerance :   1.0000e-07
             **** THE GBW FILE WAS UPDATED (calc.gbw) ****
             **** DENSITY calc.scfp WAS UPDATED ****
             **** ENERGY FILE WAS UPDATED (calc.en.tmp) ****
             **** THE GBW FILE WAS UPDATED (calc.gbw) ****
             **** DENSITY calc.scfp WAS UPDATED ****
Total SCF time: 0 days 0 hours 0 min 0 sec 

Maximum memory used throughout the entire SCF-calculation: 222.8 MB

-------------------------   --------------------
FINAL SINGLE POINT ENERGY        -6.441343220984
-------------------------   --------------------

------------------------------------------------------------------------------
                          SCF GRADIENT FOR NDO METHODS
------------------------------------------------------------------------------

The cartesian gradient:
   1   C   :    0.006996622   -0.019833077    0.000826680
   2   H   :    0.006100706   -0.017250530    0.000007812
   3   H   :   -0.003346422    0.012655803    0.001805692
   4   H   :   -0.003140052    0.012864403   -0.002521908
   5   H   :   -0.006610855    0.011563401   -0.000118278

Norm of the cartesian gradient     ...    0.036215430
RMS gradient                       ...    0.009350784
MAX gradient                       ...    0.019833077
------------------------------------------------------------------------------
                         ORCA GEOMETRY RELAXATION STEP
------------------------------------------------------------------------------

Reading the OPT-File                    .... done
Getting information on internals        .... done
Copying old internal coords+grads       .... done
Making the new internal coordinates     .... (new redundants).... done
Validating the new internal coordinates .... (new redundants).... done
Calculating the B-matrix                .... done
Calculating the G,G- and P matrices     .... done
Transforming gradient to internals      .... done
Projecting the internal gradient        .... done
Number of atoms                         ....   5
Number of internal coordinates          ....  10
Current Energy                          ....    -6.441343221 Eh
Current gradient norm                   ....     0.036215430 Eh/bohr
Maximum allowed component of the step   ....  0.300
Current trust radius                    ....  0.300
Updating the Hessian (BFGS)             .... done
Forming the augmented Hessian           .... done
Diagonalizing the augmented Hessian     .... done
Last element of RFO vector              ....  0.947446268
Lowest eigenvalues of augmented Hessian:
 -0.012120161  0.104902756  0.116597542  0.116697055  0.296994744
Length of the computed step             ....  0.337660248
Warning: the length of the step is outside the trust region - taking restricted step instead
The input lambda is                     ....    -0.012120
   iter:   1  x=   -0.023212  g=    2.165018 f(x)=     0.024014
   iter:   2  x=   -0.025289  g=    1.602456 f(x)=     0.003328
   iter:   3  x=   -0.025347  g=    1.519538 f(x)=     0.000087
   iter:   4  x=   -0.025347  g=    1.517331 f(x)=     0.000000
   iter:   5  x=   -0.025347  g=    1.517329 f(x)=     0.000000
   iter:   6  x=   -0.025347  g=    1.517329 f(x)=     0.000000
The output lambda is                    ....    -0.025347 (6 iterations)
The final length of the internal step   ....  0.300000000
Converting the step to cartesian space:
 Initial RMS(Int)=    0.0948683298
Transforming coordinates:
 Iter   0:  RMS(Cart)=    0.0845135059 RMS(Int)=    0.0860196708
 Iter   1:  RMS(Cart)=    0.0110588366 RMS(Int)=    0.0122375432
 Iter   2:  RMS(Cart)=    0.0021204572 RMS(Int)=    0.0024645415
 Iter   3:  RMS(Cart)=    0.0003180963 RMS(Int)=    0.0003811038
 Iter   4:  RMS(Cart)=    0.0000356060 RMS(Int)=    0.0000436906
 Iter   5:  RMS(Cart)=    0.0000026854 RMS(Int)=    0.0000031640
 Iter   6:  RMS(Cart)=    0.0000004625 RMS(Int)=    0.0000004613
 Iter   7:  RMS(Cart)=    0.0000001247 RMS(Int)=    0.0000001403
 Iter   8:  RMS(Cart)=    0.0000000228 RMS(Int)=    0.0000000268
Imposing constraints:
 Iter   0:  RMS(Cart)=    0.0000000000 RMS(Int)=    0.0000000000
CONVERGED
done
Storing new coordinates                 .... done

                                .--------------------.
          ----------------------|Geometry convergence|-------------------------
          Item                value                   Tolerance       Converged
          ---------------------------------------------------------------------
          Energy change      -0.0139295243            0.0000050000      NO
          RMS gradient        0.0116773927            0.0001000000      NO
          MAX gradient        0.0168048307            0.0003000000      NO
          RMS step            0.0948683298            0.0020000000      NO
          MAX step            0.1294239036            0.0040000000      NO
          ........................................................
          Max(Bonds)      0.0057      Max(Angles)    7.42
          Max(Dihed)        0.00      Max(Improp)    0.00
          ---------------------------------------------------------------------

The optimization has not yet converged - more geometry cycles are needed


    ---------------------------------------------------------------------------
                         Redundant Internal Coordinates
                            (Angstroem and degrees)

        Definition                    Value    dE/dq     Step     New-Value
    ----------------------------------------------------------------------------
     1. B(H   1,C   0)                3.5000  0.018298  0.0000    3.5000 C 
     2. B(H   2,C   0)                1.0991  0.004973 -0.0025    1.0966   
     3. B(H   3,C   0)                1.1003  0.005675 -0.0057    1.0945   
     4. B(H   4,C   0)                1.0996  0.005238 -0.0036    1.0960   
     5. A(H   2,C   0,H   3)          115.24 -0.011988    6.57    121.82   
     6. A(H   1,C   0,H   4)          102.88  0.016760   -7.40     95.48   
     7. A(H   2,C   0,H   4)          115.25 -0.011979    6.57    121.82   
     8. A(H   3,C   0,H   4)          115.11 -0.012198    6.65    121.76   
     9. A(H   1,C   0,H   2)          102.95  0.016805   -7.42     95.53   
    10. A(H   1,C   0,H   3)          102.73  0.016731   -7.38     95.35   
    ----------------------------------------------------------------------------

         *************************************************************
         *                GEOMETRY OPTIMIZATION CYCLE   3            *
         *************************************************************
---------------------------------
CARTESIAN COORDINATES (ANGSTROEM)
---------------------------------
  C      4.073272    4.277282   -0.002624
  H      5.240036    0.977486    0.000837
  H      4.565127    4.531635    0.943913
  H      4.563019    4.525173   -0.949577
  H      3.017646    3.982424   -0.001549

----------------------------
CARTESIAN COORDINATES (A.U.)
----------------------------
  NO LB      ZA    FRAG     MASS         X           Y           Z
   0 C     4.0000    0    12.011    7.697369    8.082891   -0.004959
   1 H     1.0000    0     1.008    9.902234    1.847182    0.001582
   2 H     1.0000    0     1.008    8.626839    8.563549    1.783738
   3 H     1.0000    0     1.008    8.622856    8.551338   -1.794441
   4 H     1.0000    0     1.008    5.702524    7.525690   -0.002928

--------------------------------
INTERNAL COORDINATES (ANGSTROEM)
--------------------------------
 C      0   0   0     0.000000000000     0.00000000     0.00000000
 H      1   0   0     3.500000000675     0.00000000     0.00000000
 H      1   2   0     1.096608394925    93.91655232     0.00000000
 H      1   2   3     1.094542040428    93.73945976   120.01504735
 H      1   2   3     1.096033671165    93.86673703   239.97013010

---------------------------
INTERNAL COORDINATES (A.U.)
---------------------------
 C      0   0   0     0.000000000000     0.00000000     0.00000000
 H      1   0   0     6.614041470000     0.00000000     0.00000000
 H      1   2   0     2.072289542568    93.91655232     0.00000000
 H      1   2   3     2.068384698471    93.73945976   120.01504735
 H      1   2   3     2.071203472059    93.86673703   239.97013010

------------------------------------------------------------------------------
                           ORCA NDO INTEGRAL CALCULATION
------------------------------------------------------------------------------

--------------
NDO PARAMETERS
--------------

Gamma integral treatment              ... MOPAC
Nuclear repulsuion treatment          ... AM1-style
Interaction factors:
s-s (sigma) =    1.0000
s-p (sigma) =    1.0000
s-d (sigma) =    1.0000
p-p (sigma) =    1.0000  p-p(pi) =    1.0000
p-d (sigma) =    1.0000  p-d(pi) =    1.0000
d-d (sigma) =    1.0000  d-d(pi) =    1.0000 d-d (delta) =    1.0000

--------------------------
Parameters for Element H :
--------------------------
 One-electron parameters (in eV)
  U(s)  =   -11.396427 Beta(s) =     6.173787 Neff(s) =     1.000000
 One-center electron repulsion parameters (in eV)
  G(s,s)=    12.848000
--------------------------
Parameters for Element C :
--------------------------
 One-electron parameters (in eV)
  U(s)  =   -52.028658 Beta(s) =    15.715783 Neff(s) =     2.000000
  U(p)  =   -39.614239 Beta(p) =     7.719283 Neff(p) =     2.000000 
 One-center electron repulsion parameters (in eV)
  G(s,s)=    12.230000
  G(s,p)=    11.470000 G(p,p)  =    10.253300
 Slater-Condon parameters (in eV)
 F2(p,p)=     5.1667 G1(s,p)=    7.2900

 Number of atoms                    ....    5
 Number of basis functions          ....    8

 Overlap integrals                  .... done
 One electron matrix                .... done
 Nuclear repulsion                  .... done
 Integral list                      .... done
 Electron-electron repulsion        .... done

Diagonalization of the overlap matrix:
Smallest eigenvalue                        ... 3.048e-01
Time for diagonalization                   ...    0.000 sec
Threshold for overlap eigenvalues          ... 1.000e-08
Number of eigenvalues below threshold      ... 0
Time for construction of square roots      ...    0.000 sec
Total time needed                          ...    0.000 sec


 InCore treatment chosen:
   Memory dedicated               ...    2000 MB
   Memory needed                  ...      0 MB
   Number of tiny    integrals    ...       0
   Number of small   integrals    ...       0
   Number of regular integrals    ...      66

--------------
SCF ITERATIONS
--------------
ITER       Energy         Delta-E        Max-DP      RMS-DP      [F,P]     Damp
  0     -6.4422324947   0.000000000000 0.01344698  0.00285781  0.0374038 0.7000
  1     -6.4431473321  -0.000914837415 0.01485001  0.00327809  0.0322501 0.7000
                               ***Turning on DIIS***
  2     -6.4440434211  -0.000896089000 0.04509850  0.00998435  0.0269802 0.0000
  3     -6.4561876789  -0.012144257816 0.02480038  0.00617602  0.0119598 0.0000
  4     -6.4467860520   0.009401626904 0.01410386  0.00338521  0.0053415 0.0000
  5     -6.4476840190  -0.000897966964 0.00744909  0.00192481  0.0025968 0.0000
                      *** Initiating the SOSCF procedure ***
                           *** Shutting down DIIS ***
                      *** Re-Reading the Fockian *** 
                      *** Removing any level shift *** 
ITER      Energy       Delta-E        Grad      Rot      Max-DP    RMS-DP
  6     -6.44813900  -0.0004549801  0.002482  0.002482  0.003373  0.000914
  7     -6.44816102  -0.0000220224  0.000541  0.001364  0.001131  0.000324
  8     -6.44816323  -0.0000022055  0.000261  0.001285  0.001165  0.000305
  9     -6.44816391  -0.0000006865  0.000033  0.000048  0.000095  0.000019
 10     -6.44816392  -0.0000000036  0.000007  0.000032  0.000064  0.000012
 11     -6.44816392  -0.0000000004  0.000004  0.000011  0.000022  0.000004
                 **** Energy Check signals convergence ****
              ***Rediagonalizing the Fockian in SOSCF/NRSCF***

               *****************************************************
               *                     SUCCESS                       *
               *           SCF CONVERGED AFTER  12 CYCLES          *
               *****************************************************

Total Energy       :           -6.44816392 Eh            -175.46346 eV
  Last Energy change         ...   -1.3160e-10  Tolerance :   1.0000e-08
  Last MAX-Density change    ...    2.2429e-06  Tolerance :   1.0000e-07
             **** THE GBW FILE WAS UPDATED (calc.gbw) ****
             **** DENSITY calc.scfp WAS UPDATED ****
             **** ENERGY FILE WAS UPDATED (calc.en.tmp) ****
             **** THE GBW FILE WAS UPDATED (calc.gbw) ****
             **** DENSITY calc.scfp WAS UPDATED ****
Total SCF time: 0 days 0 hours 0 min 0 sec 

Maximum memory used throughout the entire SCF-calculation: 222.8 MB

-------------------------   --------------------
FINAL SINGLE POINT ENERGY        -6.448163917708
-------------------------   --------------------

------------------------------------------------------------------------------
                          SCF GRADIENT FOR NDO METHODS
------------------------------------------------------------------------------

The cartesian gradient:
   1   C   :   -0.003373176    0.010405371   -0.001052169
   2   H   :    0.005850099   -0.016542629    0.000013966
   3   H   :    0.002392080    0.003240803    0.005671364
   4   H   :    0.001696256    0.002867257   -0.004546157
   5   H   :   -0.006565259    0.000029197   -0.000087005

Norm of the cartesian gradient     ...    0.023492675
RMS gradient                       ...    0.006065783
MAX gradient                       ...    0.016542629
------------------------------------------------------------------------------
                         ORCA GEOMETRY RELAXATION STEP
------------------------------------------------------------------------------

Reading the OPT-File                    .... done
Getting information on internals        .... done
Copying old internal coords+grads       .... done
Making the new internal coordinates     .... (new redundants).... done
Validating the new internal coordinates .... (new redundants).... done
Calculating the B-matrix                .... done
Calculating the G,G- and P matrices     .... done
Transforming gradient to internals      .... done
Projecting the internal gradient        .... done
Number of atoms                         ....   5
Number of internal coordinates          ....  10
Current Energy                          ....    -6.448163918 Eh
Current gradient norm                   ....     0.023492675 Eh/bohr
Maximum allowed component of the step   ....  0.300
Current trust radius                    ....  0.300
Updating the Hessian (BFGS)             .... done
Forming the augmented Hessian           .... done
Diagonalizing the augmented Hessian     .... done
Last element of RFO vector              ....  0.997260708
Lowest eigenvalues of augmented Hessian:
 -0.000695161  0.095549631  0.116597564  0.116697045  0.296994669
Length of the computed step             ....  0.074169928
The final length of the internal step   ....  0.074169928
Converting the step to cartesian space:
 Initial RMS(Int)=    0.0234545907
Transforming coordinates:
 Iter   0:  RMS(Cart)=    0.0232566748 RMS(Int)=    0.0227347590
 Iter   1:  RMS(Cart)=    0.0007126660 RMS(Int)=    0.0008646784
 Iter   2:  RMS(Cart)=    0.0000179920 RMS(Int)=    0.0000195884
 Iter   3:  RMS(Cart)=    0.0000009375 RMS(Int)=    0.0000010626
 Iter   4:  RMS(Cart)=    0.0000000378 RMS(Int)=    0.0000000461
Imposing constraints:
 Iter   0:  RMS(Cart)=    0.0000000000 RMS(Int)=    0.0000000000
CONVERGED
done
Storing new coordinates                 .... done

                                .--------------------.
          ----------------------|Geometry convergence|-------------------------
          Item                value                   Tolerance       Converged
          ---------------------------------------------------------------------
          Energy change      -0.0068206967            0.0000050000      NO
          RMS gradient        0.0039117069            0.0001000000      NO
          MAX gradient        0.0067199823            0.0003000000      NO
          RMS step            0.0234545907            0.0020000000      NO
          MAX step            0.0373402033            0.0040000000      NO
          ........................................................
          Max(Bonds)      0.0080      Max(Angles)    2.14
          Max(Dihed)        0.00      Max(Improp)    0.00
          ---------------------------------------------------------------------

The optimization has not yet converged - more geometry cycles are needed


    ---------------------------------------------------------------------------
                         Redundant Internal Coordinates
                            (Angstroem and degrees)

        Definition                    Value    dE/dq     Step     New-Value
    ----------------------------------------------------------------------------
     1. B(H   1,C   0)                3.5000  0.017547 -0.0000    3.5000 C 
     2. B(H   2,C   0)                1.0966  0.006720 -0.0080    1.0886   
     3. B(H   3,C   0)                1.0945  0.005342 -0.0068    1.0878   
     4. B(H   4,C   0)                1.0960  0.006315 -0.0077    1.0883   
     5. A(H   2,C   0,H   3)          119.57 -0.000809    0.90    120.47   
     6. A(H   1,C   0,H   4)           93.87  0.003530   -2.13     91.74   
     7. A(H   2,C   0,H   4)          119.57 -0.000722    0.88    120.45   
     8. A(H   3,C   0,H   4)          119.52 -0.000912    0.93    120.45   
     9. A(H   1,C   0,H   2)           93.92  0.003548   -2.14     91.78   
    10. A(H   1,C   0,H   3)           93.74  0.003520   -2.12     91.62   
    ----------------------------------------------------------------------------

         *************************************************************
         *                GEOMETRY OPTIMIZATION CYCLE   4            *
         *************************************************************
---------------------------------
CARTESIAN COORDINATES (ANGSTROEM)
---------------------------------
  C      4.064544    4.301726   -0.002589
  H      5.231377    1.001955    0.000922
  H      4.567949    4.514058    0.938942
  H      4.566567    4.508310   -0.945202
  H      3.028662    3.967951   -0.001073

----------------------------
CARTESIAN COORDINATES (A.U.)
----------------------------
  NO LB      ZA    FRAG     MASS         X           Y           Z
   0 C     4.0000    0    12.011    7.680875    8.129085   -0.004892
   1 H     1.0000    0     1.008    9.885870    1.893421    0.001742
   2 H     1.0000    0     1.008    8.632173    8.530333    1.774343
   3 H     1.0000    0     1.008    8.629561    8.519470   -1.786172
   4 H     1.0000    0     1.008    5.723342    7.498341   -0.002028

--------------------------------
INTERNAL COORDINATES (ANGSTROEM)
--------------------------------
 C      0   0   0     0.000000000000     0.00000000     0.00000000
 H      1   0   0     3.500000000675     0.00000000     0.00000000
 H      1   2   0     1.088568401815    91.65369213     0.00000000
 H      1   2   3     1.087760654758    91.49321753   120.01123179
 H      1   2   3     1.088328670374    91.61439833   240.00014593

---------------------------
INTERNAL COORDINATES (A.U.)
---------------------------
 C      0   0   0     0.000000000000     0.00000000     0.00000000
 H      1   0   0     6.614041470000     0.00000000     0.00000000
 H      1   2   0     2.057096157470    91.65369213     0.00000000
 H      1   2   3     2.055569736748    91.49321753   120.01123179
 H      1   2   3     2.056643130701    91.61439833   240.00014593

------------------------------------------------------------------------------
                           ORCA NDO INTEGRAL CALCULATION
------------------------------------------------------------------------------

--------------
NDO PARAMETERS
--------------

Gamma integral treatment              ... MOPAC
Nuclear repulsuion treatment          ... AM1-style
Interaction factors:
s-s (sigma) =    1.0000
s-p (sigma) =    1.0000
s-d (sigma) =    1.0000
p-p (sigma) =    1.0000  p-p(pi) =    1.0000
p-d (sigma) =    1.0000  p-d(pi) =    1.0000
d-d (sigma) =    1.0000  d-d(pi) =    1.0000 d-d (delta) =    1.0000

--------------------------
Parameters for Element H :
--------------------------
 One-electron parameters (in eV)
  U(s)  =   -11.396427 Beta(s) =     6.173787 Neff(s) =     1.000000
 One-center electron repulsion parameters (in eV)
  G(s,s)=    12.848000
--------------------------
Parameters for Element C :
--------------------------
 One-electron parameters (in eV)
  U(s)  =   -52.028658 Beta(s) =    15.715783 Neff(s) =     2.000000
  U(p)  =   -39.614239 Beta(p) =     7.719283 Neff(p) =     2.000000 
 One-center electron repulsion parameters (in eV)
  G(s,s)=    12.230000
  G(s,p)=    11.470000 G(p,p)  =    10.253300
 Slater-Condon parameters (in eV)
 F2(p,p)=     5.1667 G1(s,p)=    7.2900

 Number of atoms                    ....    5
 Number of basis functions          ....    8

 Overlap integrals                  .... done
 One electron matrix                .... done
 Nuclear repulsion                  .... done
 Integral list                      .... done
 Electron-electron repulsion        .... done

Diagonalization of the overlap matrix:
Smallest eigenvalue                        ... 3.007e-01
Time for diagonalization                   ...    0.000 sec
Threshold for overlap eigenvalues          ... 1.000e-08
Number of eigenvalues below threshold      ... 0
Time for construction of square roots      ...    0.000 sec
Total time needed                          ...    0.000 sec


 InCore treatment chosen:
   Memory dedicated               ...    2000 MB
   Memory needed                  ...      0 MB
   Number of tiny    integrals    ...       0
   Number of small   integrals    ...       0
   Number of regular integrals    ...      66

--------------
SCF ITERATIONS
--------------
ITER       Energy         Delta-E        Max-DP      RMS-DP      [F,P]     Damp
  0     -6.4480575912   0.000000000000 0.00362278  0.00070049  0.0099652 0.7000
                      *** Initiating the SOSCF procedure ***
                      *** Re-Reading the Fockian *** 
                      *** Removing any level shift *** 
ITER      Energy       Delta-E        Grad      Rot      Max-DP    RMS-DP
  1     -6.44811948  -0.0000618904  0.002703  0.002703  0.013346  0.002664
  2     -6.44836181  -0.0002423296  0.003185  0.008002  0.008566  0.001957
  3     -6.44844540  -0.0000835908  0.001614  0.008303  0.008604  0.002054
  4     -6.44847258  -0.0000271828  0.000334  0.001932  0.003844  0.000632
  5     -6.44847295  -0.0000003634  0.000253  0.000835  0.001658  0.000279
  6     -6.44847340  -0.0000004553  0.000010  0.000011  0.000021  0.000007
                 **** Energy Check signals convergence ****
              ***Rediagonalizing the Fockian in SOSCF/NRSCF***

               *****************************************************
               *                     SUCCESS                       *
               *           SCF CONVERGED AFTER   7 CYCLES          *
               *****************************************************

Total Energy       :           -6.44847340 Eh            -175.47188 eV
  Last Energy change         ...   -8.1437e-10  Tolerance :   1.0000e-08
  Last MAX-Density change    ...    1.8326e-05  Tolerance :   1.0000e-07
             **** THE GBW FILE WAS UPDATED (calc.gbw) ****
             **** DENSITY calc.scfp WAS UPDATED ****
             **** ENERGY FILE WAS UPDATED (calc.en.tmp) ****
             **** THE GBW FILE WAS UPDATED (calc.gbw) ****
             **** DENSITY calc.scfp WAS UPDATED ****
Total SCF time: 0 days 0 hours 0 min 0 sec 

Maximum memory used throughout the entire SCF-calculation: 222.8 MB

-------------------------   --------------------
FINAL SINGLE POINT ENERGY        -6.448473404450
-------------------------   --------------------

------------------------------------------------------------------------------
                          SCF GRADIENT FOR NDO METHODS
------------------------------------------------------------------------------

The cartesian gradient:
   1   C   :   -0.006175721    0.017787549   -0.000461798
   2   H   :    0.005786286   -0.016361144    0.000014586
   3   H   :    0.000695197   -0.000260337    0.000972701
   4   H   :    0.000426284   -0.000385944   -0.000506591
   5   H   :   -0.000732046   -0.000780125   -0.000018898

Norm of the cartesian gradient     ...    0.025673866
RMS gradient                       ...    0.006628964
MAX gradient                       ...    0.017787549
------------------------------------------------------------------------------
                         ORCA GEOMETRY RELAXATION STEP
------------------------------------------------------------------------------

Reading the OPT-File                    .... done
Getting information on internals        .... done
Copying old internal coords+grads       .... done
Making the new internal coordinates     .... (new redundants).... done
Validating the new internal coordinates .... (new redundants).... done
Calculating the B-matrix                .... done
Calculating the G,G- and P matrices     .... done
Transforming gradient to internals      .... done
Projecting the internal gradient        .... done
Number of atoms                         ....   5
Number of internal coordinates          ....  10
Current Energy                          ....    -6.448473404 Eh
Current gradient norm                   ....     0.025673866 Eh/bohr
Maximum allowed component of the step   ....  0.300
Current trust radius                    ....  0.300
Updating the Hessian (BFGS)             .... done
Forming the augmented Hessian           .... done
Diagonalizing the augmented Hessian     .... done
Last element of RFO vector              ....  0.999904630
Lowest eigenvalues of augmented Hessian:
 -0.000028164  0.116595015  0.116694080  0.125266784  0.296983270
Length of the computed step             ....  0.013811825
The final length of the internal step   ....  0.013811825
Converting the step to cartesian space:
 Initial RMS(Int)=    0.0043676826
Transforming coordinates:
 Iter   0:  RMS(Cart)=    0.0045128471 RMS(Int)=    0.0042849260
 Iter   1:  RMS(Cart)=    0.0000280428 RMS(Int)=    0.0000340656
 Iter   2:  RMS(Cart)=    0.0000001473 RMS(Int)=    0.0000001576
 Iter   3:  RMS(Cart)=    0.0000000015 RMS(Int)=    0.0000000018
Imposing constraints:
 Iter   0:  RMS(Cart)=    0.0000000000 RMS(Int)=    0.0000000000
CONVERGED
done
Storing new coordinates                 .... done

                                .--------------------.
          ----------------------|Geometry convergence|-------------------------
          Item                value                   Tolerance       Converged
          ---------------------------------------------------------------------
          Energy change      -0.0003094867            0.0000050000      NO
          RMS gradient        0.0007603025            0.0001000000      NO
          MAX gradient        0.0011122006            0.0003000000      NO
          RMS step            0.0043676826            0.0020000000      NO
          MAX step            0.0075733623            0.0040000000      NO
          ........................................................
          Max(Bonds)      0.0010      Max(Angles)    0.43
          Max(Dihed)        0.00      Max(Improp)    0.00
          ---------------------------------------------------------------------

The optimization has not yet converged - more geometry cycles are needed


    ---------------------------------------------------------------------------
                         Redundant Internal Coordinates
                            (Angstroem and degrees)

        Definition                    Value    dE/dq     Step     New-Value
    ----------------------------------------------------------------------------
     1. B(H   1,C   0)                3.5000  0.017354  0.0000    3.5000 C 
     2. B(H   2,C   0)                1.0886  0.001112 -0.0010    1.0876   
     3. B(H   3,C   0)                1.0878  0.000563 -0.0003    1.0874   
     4. B(H   4,C   0)                1.0883  0.000936 -0.0008    1.0876   
     5. A(H   2,C   0,H   3)          119.94  0.000108   -0.13    119.80   
     6. A(H   1,C   0,H   4)           91.61 -0.001055    0.43     92.05   
     7. A(H   2,C   0,H   4)          119.92  0.000119   -0.13    119.79   
     8. A(H   3,C   0,H   4)          119.92  0.000076   -0.13    119.79   
     9. A(H   1,C   0,H   2)           91.65 -0.001040    0.42     92.08   
    10. A(H   1,C   0,H   3)           91.49 -0.001061    0.43     91.93   
    ----------------------------------------------------------------------------

         *************************************************************
         *                GEOMETRY OPTIMIZATION CYCLE   5            *
         *************************************************************
---------------------------------
CARTESIAN COORDINATES (ANGSTROEM)
---------------------------------
  C      4.066166    4.297024   -0.002455
  H      5.233041    0.997268    0.000987
  H      4.566257    4.516845    0.937978
  H      4.565138    4.511441   -0.944577
  H      3.028498    3.971422   -0.000933

----------------------------
CARTESIAN COORDINATES (A.U.)
----------------------------
  NO LB      ZA    FRAG     MASS         X           Y           Z
   0 C     4.0000    0    12.011    7.683941    8.120199   -0.004639
   1 H     1.0000    0     1.008    9.889014    1.884563    0.001865
   2 H     1.0000    0     1.008    8.628975    8.535601    1.772521
   3 H     1.0000    0     1.008    8.626861    8.525387   -1.784992
   4 H     1.0000    0     1.008    5.723032    7.504899   -0.001763

--------------------------------
INTERNAL COORDINATES (ANGSTROEM)
--------------------------------
 C      0   0   0     0.000000000000     0.00000000     0.00000000
 H      1   0   0     3.500000000675     0.00000000     0.00000000
 H      1   2   0     1.087577524241    92.08631014     0.00000000
 H      1   2   3     1.087447353951    91.93517267   120.01003319
 H      1   2   3     1.087554607990    92.05377961   240.00079563

---------------------------
INTERNAL COORDINATES (A.U.)
---------------------------
 C      0   0   0     0.000000000000     0.00000000     0.00000000
 H      1   0   0     6.614041470000     0.00000000     0.00000000
 H      1   2   0     2.055223670223    92.08631014     0.00000000
 H      1   2   3     2.054977684026    91.93517267   120.01003319
 H      1   2   3     2.055180364784    92.05377961   240.00079563

------------------------------------------------------------------------------
                           ORCA NDO INTEGRAL CALCULATION
------------------------------------------------------------------------------

--------------
NDO PARAMETERS
--------------

Gamma integral treatment              ... MOPAC
Nuclear repulsuion treatment          ... AM1-style
Interaction factors:
s-s (sigma) =    1.0000
s-p (sigma) =    1.0000
s-d (sigma) =    1.0000
p-p (sigma) =    1.0000  p-p(pi) =    1.0000
p-d (sigma) =    1.0000  p-d(pi) =    1.0000
d-d (sigma) =    1.0000  d-d(pi) =    1.0000 d-d (delta) =    1.0000

--------------------------
Parameters for Element H :
--------------------------
 One-electron parameters (in eV)
  U(s)  =   -11.396427 Beta(s) =     6.173787 Neff(s) =     1.000000
 One-center electron repulsion parameters (in eV)
  G(s,s)=    12.848000
--------------------------
Parameters for Element C :
--------------------------
 One-electron parameters (in eV)
  U(s)  =   -52.028658 Beta(s) =    15.715783 Neff(s) =     2.000000
  U(p)  =   -39.614239 Beta(p) =     7.719283 Neff(p) =     2.000000 
 One-center electron repulsion parameters (in eV)
  G(s,s)=    12.230000
  G(s,p)=    11.470000 G(p,p)  =    10.253300
 Slater-Condon parameters (in eV)
 F2(p,p)=     5.1667 G1(s,p)=    7.2900

 Number of atoms                    ....    5
 Number of basis functions          ....    8

 Overlap integrals                  .... done
 One electron matrix                .... done
 Nuclear repulsion                  .... done
 Integral list                      .... done
 Electron-electron repulsion        .... done

Diagonalization of the overlap matrix:
Smallest eigenvalue                        ... 3.002e-01
Time for diagonalization                   ...    0.000 sec
Threshold for overlap eigenvalues          ... 1.000e-08
Number of eigenvalues below threshold      ... 0
Time for construction of square roots      ...    0.000 sec
Total time needed                          ...    0.000 sec


 InCore treatment chosen:
   Memory dedicated               ...    2000 MB
   Memory needed                  ...      0 MB
   Number of tiny    integrals    ...       0
   Number of small   integrals    ...       0
   Number of regular integrals    ...      66

--------------
SCF ITERATIONS
--------------
ITER       Energy         Delta-E        Max-DP      RMS-DP      [F,P]     Damp
                      *** Initiating the SOSCF procedure ***
                      *** Re-Reading the Fockian *** 
                      *** Removing any level shift *** 
ITER      Energy       Delta-E        Grad      Rot      Max-DP    RMS-DP
  0     -6.44847421  -6.4484742118  0.001066  0.001066  0.002340  0.000444
  1     -6.44848273  -0.0000085192  0.000763  0.001917  0.002155  0.000471
  2     -6.44848770  -0.0000049707  0.000390  0.001980  0.002074  0.000484
  3     -6.44848930  -0.0000015983  0.000072  0.000433  0.000866  0.000141
  4     -6.44848931  -0.0000000143  0.000058  0.000191  0.000383  0.000063
  5     -6.44848934  -0.0000000236  0.000003  0.000004  0.000007  0.000002
                 **** Energy Check signals convergence ****
              ***Rediagonalizing the Fockian in SOSCF/NRSCF***

               *****************************************************
               *                     SUCCESS                       *
               *           SCF CONVERGED AFTER   6 CYCLES          *
               *****************************************************

Total Energy       :           -6.44848934 Eh            -175.47232 eV
  Last Energy change         ...   -6.9040e-11  Tolerance :   1.0000e-08
  Last MAX-Density change    ...    5.9780e-06  Tolerance :   1.0000e-07
             **** THE GBW FILE WAS UPDATED (calc.gbw) ****
             **** DENSITY calc.scfp WAS UPDATED ****
             **** ENERGY FILE WAS UPDATED (calc.en.tmp) ****
             **** THE GBW FILE WAS UPDATED (calc.gbw) ****
             **** DENSITY calc.scfp WAS UPDATED ****
Total SCF time: 0 days 0 hours 0 min 0 sec 

Maximum memory used throughout the entire SCF-calculation: 222.8 MB

-------------------------   --------------------
FINAL SINGLE POINT ENERGY        -6.448489337910
-------------------------   --------------------

------------------------------------------------------------------------------
                          SCF GRADIENT FOR NDO METHODS
------------------------------------------------------------------------------

The cartesian gradient:
   1   C   :   -0.005812075    0.016520978   -0.000087488
   2   H   :    0.005798916   -0.016396059    0.000014431
   3   H   :    0.000170725    0.000025321    0.000305005
   4   H   :    0.000131185   -0.000003779   -0.000230093
   5   H   :   -0.000288750   -0.000146462   -0.000001854

Norm of the cartesian gradient     ...    0.024687786
RMS gradient                       ...    0.006374359
MAX gradient                       ...    0.016520978
------------------------------------------------------------------------------
                         ORCA GEOMETRY RELAXATION STEP
------------------------------------------------------------------------------

Reading the OPT-File                    .... done
Getting information on internals        .... done
Copying old internal coords+grads       .... done
Making the new internal coordinates     .... (new redundants).... done
Validating the new internal coordinates .... (new redundants).... done
Calculating the B-matrix                .... done
Calculating the G,G- and P matrices     .... done
Transforming gradient to internals      .... done
Projecting the internal gradient        .... done
Number of atoms                         ....   5
Number of internal coordinates          ....  10
Current Energy                          ....    -6.448489338 Eh
Current gradient norm                   ....     0.024687786 Eh/bohr
Maximum allowed component of the step   ....  0.300
Current trust radius                    ....  0.300
Updating the Hessian (BFGS)             .... done
Forming the augmented Hessian           .... done
Diagonalizing the augmented Hessian     .... done
Last element of RFO vector              ....  0.999998074
Lowest eigenvalues of augmented Hessian:
 -0.000000965  0.116535981  0.116655638  0.123419756  0.296956585
Length of the computed step             ....  0.001962568
The final length of the internal step   ....  0.001962568
Converting the step to cartesian space:
 Initial RMS(Int)=    0.0006206184
Transforming coordinates:
 Iter   0:  RMS(Cart)=    0.0006040222 RMS(Int)=    0.0006188951
 Iter   1:  RMS(Cart)=    0.0000004104 RMS(Int)=    0.0000004770
 Iter   2:  RMS(Cart)=    0.0000000003 RMS(Int)=    0.0000000004
Imposing constraints:
 Iter   0:  RMS(Cart)=    0.0000000000 RMS(Int)=    0.0000000000
CONVERGED
done
Storing new coordinates                 .... done

                                .--------------------.
          ----------------------|Geometry convergence|-------------------------
          Item                value                   Tolerance       Converged
          ---------------------------------------------------------------------
          Energy change      -0.0000159335            0.0000050000      NO
          RMS gradient        0.0001798266            0.0001000000      NO
          MAX gradient        0.0003475323            0.0003000000      NO
          RMS step            0.0006206184            0.0020000000      YES
          MAX step            0.0009166412            0.0040000000      YES
          ........................................................
          Max(Bonds)      0.0005      Max(Angles)    0.05
          Max(Dihed)        0.00      Max(Improp)    0.00
          ---------------------------------------------------------------------

       The step convergence is overachieved with 
       reasonable convergence on the gradient
       Convergence will therefore be signaled now


                    ***********************HURRAY********************
                    ***        THE OPTIMIZATION HAS CONVERGED     ***
                    *************************************************


    ---------------------------------------------------------------------------
                         Redundant Internal Coordinates

                          --- Optimized Parameters ---  
                            (Angstroem and degrees)

        Definition                    OldVal   dE/dq     Step     FinalVal
[...]
     2. B(H   2,C   0)                1.0985 -0.009495 -0.0003    1.0982   
     3. B(H   2,H   1)                2.0728  0.021239 -0.0005    2.0723   
     4. B(H   3,C   0)                1.0985 -0.009495 -0.0003    1.0982   
     5. B(H   3,H   1)                2.0728  0.021239 -0.0005    2.0723   
     6. B(H   4,C   0)                1.0985 -0.009495 -0.0003    1.0983   
     7. B(H   4,H   1)                2.0728  0.021238 -0.0005    2.0723   
     8. A(H   2,C   0,H   3)          113.75  0.004574    0.02    113.76   
     9. A(H   1,C   0,H   4)          104.76 -0.005665   -0.02    104.74   
    10. A(H   1,C   0,H   2)          104.76 -0.005665   -0.02    104.74   
    11. A(H   1,C   0,H   3)          104.76 -0.005665   -0.02    104.74   
    12. A(H   3,C   0,H   4)          113.74  0.004574    0.02    113.76   
    13. A(H   2,C   0,H   4)          113.74  0.004574    0.02    113.76   
    14. A(H   2,H   1,H   4)           52.70 -0.008423    0.01     52.70   
    15. A(H   3,H   1,H   4)           52.70 -0.008423    0.01     52.70   
    16. A(C   0,H   1,H   2)           30.83 -0.005075    0.00     30.83   
    17. A(C   0,H   1,H   3)           30.83 -0.005075    0.00     30.83   
    18. A(H   2,H   1,H   3)           52.70 -0.008424    0.01     52.70   
    19. A(C   0,H   1,H   4)           30.83 -0.005075    0.00     30.83   
    20. A(C   0,H   2,H   1)           44.41  0.010740    0.02     44.43   
    21. A(C   0,H   3,H   1)           44.41  0.010740    0.02     44.43   
    22. A(C   0,H   4,H   1)           44.41  0.010740    0.02     44.43   
    23. D(H   2,H   1,C   0,H   3)    120.00  0.000000    0.00    120.00   
    24. D(H   2,H   1,C   0,H   4)   -120.00  0.000000    0.00   -120.00   
    25. D(H   4,H   1,C   0,H   2)    120.00 -0.000000   -0.00    120.00   
    26. D(H   3,H   1,C   0,H   2)   -120.00 -0.000000   -0.00   -120.00   
    27. D(H   3,H   1,C   0,H   4)    120.00 -0.000000   -0.00    120.00   
    28. D(H   4,H   1,C   0,H   3)   -120.00  0.000000    0.00   -120.00   
    29. D(H   1,H   2,C   0,H   3)   -113.81  0.007942    0.03   -113.78   
    30. D(H   1,H   2,C   0,H   4)    113.81 -0.007942   -0.03    113.78   
    31. D(C   0,H   2,H   1,H   3)     33.91 -0.001403    0.00     33.91   
    32. D(C   0,H   2,H   1,H   4)    -33.92  0.001402   -0.00    -33.92   
    33. D(H   1,H   3,C   0,H   2)    113.81 -0.007942   -0.03    113.78   
    34. D(H   1,H   3,C   0,H   4)   -113.81  0.007942    0.03   -113.78   
    35. D(C   0,H   3,H   1,H   2)    -33.91  0.001403   -0.00    -33.91   
    36. D(C   0,H   3,H   1,H   4)     33.92 -0.001402    0.00     33.92   
    37. D(H   1,H   4,C   0,H   2)   -113.81  0.007941    0.03   -113.78   
    38. D(H   1,H   4,C   0,H   3)    113.81 -0.007942   -0.03    113.78   
    39. D(C   0,H   4,H   1,H   2)     33.92 -0.001403    0.00     33.92   
    40. D(C   0,H   4,H   1,H   3)    -33.92  0.001403   -0.00    -33.92   
    ----------------------------------------------------------------------------
                 *******************************************************
                 *** FINAL ENERGY EVALUATION AT THE STATIONARY POINT ***
                 ***               (AFTER    6 CYCLES)               ***
                 *******************************************************
---------------------------------
CARTESIAN COORDINATES (ANGSTROEM)
---------------------------------
  C      4.247722    3.783602   -0.001975
  H      4.747627    2.369356    0.000009
  H      4.656156    4.225592    0.916699
  H      4.654392    4.222385   -0.922965
  H      3.153202    3.693065   -0.000768

----------------------------
CARTESIAN COORDINATES (A.U.)
----------------------------
  NO LB      ZA    FRAG     MASS         X           Y           Z
   0 C     4.0000    0    12.011    8.027032    7.149971   -0.003732
   1 H     1.0000    0     1.008    8.971716    4.477434    0.000017
   2 H     1.0000    0     1.008    8.798859    7.985212    1.732310
   3 H     1.0000    0     1.008    8.795527    7.979152   -1.744152
   4 H     1.0000    0     1.008    5.958689    6.978881   -0.001451

--------------------------------
INTERNAL COORDINATES (ANGSTROEM)
--------------------------------
 C      0   0   0     0.000000000000     0.00000000     0.00000000
 H      1   0   0     1.499999957212     0.00000000     0.00000000
 H      1   2   0     1.098241579136   104.73781714     0.00000000
 H      1   2   3     1.098241924163   104.73765086   120.00421717
 H      1   2   3     1.098258823481   104.73864316   240.00203988

---------------------------
INTERNAL COORDINATES (A.U.)
---------------------------
 C      0   0   0     0.000000000000     0.00000000     0.00000000
 H      1   0   0     2.834589120024     0.00000000     0.00000000
 H      1   2   0     2.075375813453   104.73781714     0.00000000
 H      1   2   3     2.075376465460   104.73765086   120.00421717
 H      1   2   3     2.075408400541   104.73864316   240.00203988

----------------------------
SLATER BASIS SET DIM=   8
----------------------------
  0 C     2 shells
 l=0 nsto= 1
    2       1.808665000000        1.000000000000
 l=1 nsto= 1
    2       1.685116000000        1.000000000000
  1 H     1 shells
 l=0 nsto= 1
    1       1.188078000000        1.000000000000
  2 H     1 shells
 l=0 nsto= 1
    1       1.188078000000        1.000000000000
  3 H     1 shells
 l=0 nsto= 1
    1       1.188078000000        1.000000000000
  4 H     1 shells
 l=0 nsto= 1
    1       1.188078000000        1.000000000000
------------------------------------------------------------------------------
                           ORCA NDO INTEGRAL CALCULATION
------------------------------------------------------------------------------

--------------
NDO PARAMETERS
--------------

Gamma integral treatment              ... MOPAC
Nuclear repulsuion treatment          ... AM1-style
Interaction factors:
s-s (sigma) =    1.0000
s-p (sigma) =    1.0000
s-d (sigma) =    1.0000
p-p (sigma) =    1.0000  p-p(pi) =    1.0000
p-d (sigma) =    1.0000  p-d(pi) =    1.0000
d-d (sigma) =    1.0000  d-d(pi) =    1.0000 d-d (delta) =    1.0000

--------------------------
Parameters for Element H :
--------------------------
 One-electron parameters (in eV)
  U(s)  =   -11.396427 Beta(s) =     6.173787 Neff(s) =     1.000000
 One-center electron repulsion parameters (in eV)
  G(s,s)=    12.848000
--------------------------
Parameters for Element C :
--------------------------
 One-electron parameters (in eV)
  U(s)  =   -52.028658 Beta(s) =    15.715783 Neff(s) =     2.000000
  U(p)  =   -39.614239 Beta(p) =     7.719283 Neff(p) =     2.000000 
 One-center electron repulsion parameters (in eV)
  G(s,s)=    12.230000
  G(s,p)=    11.470000 G(p,p)  =    10.253300
 Slater-Condon parameters (in eV)
 F2(p,p)=     5.1667 G1(s,p)=    7.2900

 Number of atoms                    ....    5
 Number of basis functions          ....    8

 Overlap integrals                  .... done
 One electron matrix                .... done
 Nuclear repulsion                  .... done
 Integral list                      .... done
 Electron-electron repulsion        .... done
-------------------------------------------------------------------------------
                                 ORCA SCF
-------------------------------------------------------------------------------

------------
SCF SETTINGS
------------
Hamiltonian:
 ZDO-Hamiltonian        Method          .... NDDO


General Settings:
 Integral files         IntName         .... calc
 Hartree-Fock type      HFTyp           .... RHF
 Total Charge           Charge          ....    0
 Multiplicity           Mult            ....    1
 Number of Electrons    NEL             ....    8
 Basis Dimension        Dim             ....    8
 Nuclear Repulsion      ENuc            ....      7.0170713474 Eh

Convergence Acceleration:
 DIIS                   CNVDIIS         .... on
   Start iteration      DIISMaxIt       ....    12
   Startup error        DIISStart       ....  0.200000
   # of expansion vecs  DIISMaxEq       ....     5
   Bias factor          DIISBfac        ....   1.050
   Max. coefficient     DIISMaxC        ....  10.000
 Trust-Rad. Augm. Hess. CNVTRAH         .... off
 SOSCF                  CNVSOSCF        .... on
   Start iteration      SOSCFMaxIt      ....   150
   Startup grad/error   SOSCFStart      ....  0.003300
 Level Shifting         CNVShift        .... on
   Level shift para.    LevelShift      ....    0.2500
   Turn off err/grad.   ShiftErr        ....    0.0010
 Zerner damping         CNVZerner       .... off
 Static damping         CNVDamp         .... on
   Fraction old density DampFac         ....    0.7000
   Max. Damping (<1)    DampMax         ....    0.9800
   Min. Damping (>=0)   DampMin         ....    0.0000
   Turn off err/grad.   DampErr         ....    0.1000
 Fernandez-Rico         CNVRico         .... off

SCF Procedure:
 Maximum # iterations   MaxIter         ....   125
 SCF integral mode      SCFMode         .... Conventional
 Integral Buffer length BufferLength    .... 1048576
 Integral index format  IndFormat       ....     0
 Integral value format  ValFormat       ....     0
 Integral Storage       Thresh          ....  2.500e-11 Eh

Convergence Tolerance:
 Convergence Check Mode ConvCheckMode   .... Total+1el-Energy
 Convergence forced     ConvForced      .... 0
 Energy Change          TolE            ....  1.000e-08 Eh
 1-El. energy change                    ....  1.000e-05 Eh
 Orbital Gradient       TolG            ....  1.000e-05
 Orbital Rotation angle TolX            ....  1.000e-05
 DIIS Error             TolErr          ....  5.000e-07


Diagonalization of the overlap matrix:
Smallest eigenvalue                        ... 2.943e-01
Time for diagonalization                   ...    0.000 sec
Threshold for overlap eigenvalues          ... 1.000e-08
Number of eigenvalues below threshold      ... 0
Time for construction of square roots      ...    0.000 sec
Total time needed                          ...    0.000 sec

---------------------
INITIAL GUESS: MOREAD
---------------------
Guess MOs are being read from file: calc.gbw
Input Geometry matches current geometry (good)
Input basis set matches current basis set (good)
                      ------------------
                      INITIAL GUESS DONE (   0.0 sec)
                      ------------------

 InCore treatment chosen:
   Memory dedicated               ...    2000 MB
   Memory needed                  ...      0 MB
   Number of tiny    integrals    ...       0
   Number of small   integrals    ...       0
   Number of regular integrals    ...      66

--------------
SCF ITERATIONS
--------------
ITER       Energy         Delta-E        Max-DP      RMS-DP      [F,P]     Damp
                      *** Initiating the SOSCF procedure ***
                      *** Re-Reading the Fockian *** 
                      *** Removing any level shift *** 
ITER      Energy       Delta-E        Grad      Rot      Max-DP    RMS-DP
  0     -6.68052139  -6.6805213891  0.000074  0.000074  0.000099  0.000025
  1     -6.68052142  -0.0000000322  0.000042  0.000070  0.000072  0.000019
  2     -6.68052143  -0.0000000109  0.000019  0.000053  0.000050  0.000014
                 **** Energy Check signals convergence ****
              ***Rediagonalizing the Fockian in SOSCF/NRSCF***

               *****************************************************
               *                     SUCCESS                       *
               *           SCF CONVERGED AFTER   3 CYCLES          *
               *****************************************************


----------------
TOTAL SCF ENERGY
----------------

Total Energy       :           -6.68052143 Eh            -181.78623 eV

Components:
Nuclear Repulsion  :            7.01707135 Eh             190.94422 eV
Electronic Energy  :          -13.69759278 Eh            -372.73045 eV
One Electron Energy:          -22.52837144 Eh            -613.02815 eV
Two Electron Energy:            8.83077866 Eh             240.29770 eV


---------------
SCF CONVERGENCE
---------------

  Last Energy change         ...   -2.3152e-09  Tolerance :   1.0000e-08
  Last MAX-Density change    ...    3.6906e-06  Tolerance :   1.0000e-07
  Last RMS-Density change    ...    1.1402e-06  Tolerance :   5.0000e-09
  Last Orbital Gradient      ...    2.5238e-06  Tolerance :   1.0000e-05
  Last Orbital Rotation      ...    2.3872e-06  Tolerance :   1.0000e-05

             **** THE GBW FILE WAS UPDATED (calc.gbw) ****
             **** DENSITY calc.scfp WAS UPDATED ****
             **** ENERGY FILE WAS UPDATED (calc.en.tmp) ****
             **** THE GBW FILE WAS UPDATED (calc.gbw) ****
             **** DENSITY calc.scfp WAS UPDATED ****
----------------
ORBITAL ENERGIES
----------------

  NO   OCC          E(Eh)            E(eV) 
   0   2.0000      -1.020952       -27.7815 
   1   2.0000      -0.496615       -13.5136 
   2   2.0000      -0.496602       -13.5132 
   3   2.0000      -0.419239       -11.4081 
   4   0.0000       0.092028         2.5042 
   5   0.0000       0.178833         4.8663 
   6   0.0000       0.178841         4.8665 
   7   0.0000       0.181252         4.9321 

                    ********************************
                    * MULLIKEN POPULATION ANALYSIS *
                    ********************************

-----------------------
MULLIKEN ATOMIC CHARGES
-----------------------
   0 C :   -0.411774
   1 H :    0.048029
   2 H :    0.121252
   3 H :    0.121252
   4 H :    0.121241
Sum of atomic charges:    0.0000000

--------------------------------
MULLIKEN REDUCED ORBITAL CHARGES
--------------------------------
  0 C s       :     1.512349  s :     1.512349
      pz      :     0.963011  p :     2.899425
      px      :     0.964171
      py      :     0.972243
  1 H s       :     0.951971  s :     0.951971
  2 H s       :     0.878748  s :     0.878748
  3 H s       :     0.878748  s :     0.878748
  4 H s       :     0.878759  s :     0.878759


                     *******************************
                     * LOEWDIN POPULATION ANALYSIS *
                     *******************************

----------------------
LOEWDIN ATOMIC CHARGES
----------------------
   0 C :   -0.264131
   1 H :    0.035693
   2 H :    0.076149
   3 H :    0.076149
   4 H :    0.076141

-------------------------------
LOEWDIN REDUCED ORBITAL CHARGES
-------------------------------
  0 C s       :     1.268898  s :     1.268898
      pz      :     1.003480  p :     2.995234
      px      :     1.001796
      py      :     0.989958
  1 H s       :     0.964307  s :     0.964307
  2 H s       :     0.923851  s :     0.923851
  3 H s       :     0.923851  s :     0.923851
  4 H s       :     0.923859  s :     0.923859


                      *****************************
                      * MAYER POPULATION ANALYSIS *
                      *****************************

  NA   - Mulliken gross atomic population
  ZA   - Total nuclear charge
  QA   - Mulliken gross atomic charge
  VA   - Mayer's total valence
  BVA  - Mayer's bonded valence
  FA   - Mayer's free valence

  ATOM       NA         ZA         QA         VA         BVA        FA
  0 C      6.6076     4.0000    -2.6076     1.9808    10.1191    -8.1383
  1 H      1.3474     1.0000    -0.3474     0.8793     2.0096    -1.1302
  2 H      1.5371     1.0000    -0.5371     0.7115     2.7748    -2.0633
  3 H      1.5371     1.0000    -0.5371     0.7115     2.7748    -2.0633
  4 H      1.5371     1.0000    -0.5371     0.7115     2.7748    -2.0633

  Mayer bond orders larger than 0.100000
B(  0-C ,  1-H ) :   1.9757 B(  0-C ,  2-H ) :   2.7145 B(  0-C ,  3-H ) :   2.7145 
B(  0-C ,  4-H ) :   2.7144 

-------
TIMINGS
-------

Total SCF time: 0 days 0 hours 0 min 0 sec 

Total time                  ....       0.111 sec
Sum of individual times     ....       0.005 sec  (  4.9%)

Fock matrix formation       ....       0.003 sec  (  2.3%)
Diagonalization             ....       0.000 sec  (  0.0%)
Density matrix formation    ....       0.000 sec  (  0.0%)
Population analysis         ....       0.002 sec  (  2.0%)
Initial guess               ....       0.000 sec  (  0.4%)
Orbital Transformation      ....       0.000 sec  (  0.0%)
Orbital Orthonormalization  ....       0.000 sec  (  0.0%)
DIIS solution               ....       0.000 sec  (  0.0%)
SOSCF solution              ....       0.000 sec  (  0.1%)

Maximum memory used throughout the entire SCF-calculation: 222.8 MB

-------------------------   --------------------
FINAL SINGLE POINT ENERGY        -6.680521434504
-------------------------   --------------------

                                *** OPTIMIZATION RUN DONE ***

Storing optimized geometry in calc.005.xyz ... done
Storing optimized geometry and energy in calc.xyzall ... done
Storing actual gbw-file in calc.005.gbw ... done

                            ***************************************
                            *     ORCA property calculations      *
                            ***************************************

                                    ---------------------
                                    Active property flags
                                    ---------------------
   (+) Dipole Moment


------------------------------------------------------------------------------
                       ORCA ELECTRIC PROPERTIES CALCULATION
------------------------------------------------------------------------------

Dipole Moment Calculation                       ... on
Quadrupole Moment Calculation                   ... off
Polarizability Calculation                      ... off
GBWName                                         ... calc.gbw
Electron density                                ... calc.scfp
The origin for moment calculation is the CENTER OF MASS  = ( 8.053211,  7.075880 -0.003628)

-------------
DIPOLE MOMENT
-------------
                                X             Y             Z
Electronic contribution:     -0.09335       0.26440      -0.00037
Nuclear contribution   :      0.20723      -0.58648       0.00082
                        -----------------------------------------
Total Dipole Moment    :      0.11388      -0.32208       0.00045
                        -----------------------------------------
Magnitude (a.u.)       :      0.34162
Magnitude (Debye)      :      0.86833



--------------------
Rotational spectrum 
--------------------
 
Rotational constants in cm-1:     4.941659     4.031075     4.030960 
Rotational constants in MHz : 148147.210714 120848.576727 120845.134904 

 Dipole components along the rotational axes: 
x,y,z [a.u.] :    -0.341621     0.000002    -0.000010 
x,y,z [Debye]:    -0.868332     0.000005    -0.000024 

 
                   **** RELAXED SURFACE SCAN DONE ***

                    SUMMARY OF THE CALCULATED SURFACE

----------------------------
RELAXED SURFACE SCAN RESULTS
----------------------------

Column   1: NONAME

The Calculated Surface using the 'Actual Energy'
   3.50000000  -6.44848984
   3.00000000  -6.47052785
   2.50000000  -6.51084474
   2.00000000  -6.58033573
   1.50000000  -6.68052143

The Calculated Surface using the SCF energy
   3.50000000  -6.44848984
   3.00000000  -6.47052785
   2.50000000  -6.51084474
   2.00000000  -6.58033573
   1.50000000  -6.68052143


Timings for individual modules:

Sum of individual times         ...        5.728 sec (=   0.095 min)
STO integral calculation        ...        0.552 sec (=   0.009 min)   9.6 %
SCF iterations                  ...        4.374 sec (=   0.073 min)  76.4 %
SCF Gradient evaluation         ...        0.349 sec (=   0.006 min)   6.1 %
Geometry relaxation             ...        0.453 sec (=   0.008 min)   7.9 %
                             ****ORCA TERMINATED NORMALLY****
TOTAL RUN TIME: 0 days 0 hours 0 minutes 6 seconds 664 msec
