5
 energy: -4.174846019213 gnorm: 0.017368041996 xtb: 6.5.1 (579679a)
C            4.29180000000000        3.65880000000000        0.00000000000000
H            4.64850000000000        2.65000000000000        0.00000000000000
H            4.64850000000000        4.16320000000000        0.87070000000000
H            4.64850000000000        4.16320000000000       -0.87970000000000
H            3.22180000000000        3.65880000000000        0.00000000000000
5
 energy: -4.175208701392 gnorm: 0.002848190328 xtb: 6.5.1 (579679a)
C            4.29168380469867        3.65869862150455       -0.00092495149831
H            4.65203241416297        2.64034794531048       -0.00088332948567
H            4.65284211750720        4.16933242214327        0.87897319261661
H            4.65108339074313        4.16674640898418       -0.88533912998454
H            3.21145827288803        3.65887460205752       -0.00082578164810
5
 energy: -4.175218305067 gnorm: 0.000305678077 xtb: 6.5.1 (579679a)
C            4.29159603966043        3.65871193690269       -0.00142964606230
H            4.65264307490911        2.63864900539461       -0.00094413819716
H            4.65359009600284        4.17039032013357        0.88042685011230
H            4.65174679133064        4.16744465815221       -0.88630603458790
H            3.20952399809697        3.65880407941692       -0.00074703126493
5
 energy: -4.175218372002 gnorm: 0.000068653494 xtb: 6.5.1 (579679a)
C            4.29153210814905        3.65872443344174       -0.00166760400869
H            4.65268304928153        2.63856936321796       -0.00089371551462
H            4.65361759397918        4.17042898911509        0.88049049219652
H            4.65190154779630        4.16751242863961       -0.88632027582638
H            3.20936570079394        3.65876478558561       -0.00060889684683
