10
 energy: -16.102994754933 xtb: 6.4.1 (afa7bdf)
C        -0.70637444253828    0.17262756447337    0.33274278065613
C         0.66342005860686   -0.09380325510269   -0.02190077602646
Cl        0.93285628437110   -0.54317433649946   -2.00868497115447
H        -0.75988380978502    0.40510586434032    1.41897239722594
H        -1.35842320604153   -0.68636227378889    0.17450065434711
H        -1.11501376182110    1.04130170850485   -0.18353797847726
H         1.09141055715926   -0.99646708481526    0.39572988005679
H         1.33775113016756    0.75153233704054    0.03379212251904
O        -0.97892364428768    0.73164380712797    2.84233623132852
H        -1.92653916582998    0.89354566871770    2.87895965952515
10
 energy: -16.119040909544 xtb: 6.4.1 (afa7bdf)
C        -0.68792504036772    0.16818408741031    0.32560001714713
C         0.63022831904012   -0.06483665776524    0.09628160467240
Cl        1.07794078454880   -0.61448196393118   -2.26084404436502
H        -0.78082769665597    0.45806991760657    1.66639556242620
H        -1.36969515055376   -0.67450936420637    0.32057456372458
H        -1.12102396929372    1.09044013100425   -0.04447244089309
H         1.06939794603261   -1.01732002184278    0.33559915146975
H         1.31864643897528    0.75216802491230   -0.03001982625264
O        -1.00558185976723    0.70918965765923    2.72075042806738
H        -1.95087977195721    0.86904618915136    2.73304498400379
10
 energy: -16.130298844348 xtb: 6.4.1 (afa7bdf)
C        -0.69674782362775    0.15307133693763    0.24908160391301
C         0.61332271636223   -0.05890560511731    0.11465400141932
Cl        1.24320081280289   -0.67343584746759   -2.43880651253721
H        -0.78002719089523    0.49484598490453    1.84791814421312
H        -1.38663414974233   -0.67456682147104    0.34093810998024
H        -1.13664733796745    1.10178227455308   -0.02642229766576
H         1.05002403524026   -1.02542090737780    0.28787673764334
H         1.29915496228797    0.74569938546094   -0.07798320961333
O        -1.03978542109637    0.72868928188160    2.79707811386067
H        -1.98558060336302    0.88419091769441    2.76857530878709
10
 energy: -16.134439224605 xtb: 6.4.1 (afa7bdf)
C        -0.72959462141566    0.13991642552076    0.16632344378627
C         0.57939274521866   -0.05793802128788    0.09785922799696
Cl        1.40044441562168   -0.71255566270837   -2.52942513798728
H        -0.70881557808752    0.51994514869685    2.02887189495508
H        -1.42151681685274   -0.67880766801543    0.30177583724584
H        -1.17197404759660    1.09811000701534   -0.06545486215386
H         1.01705146193916   -1.02661892009127    0.25771241133616
H         1.26556318798856    0.74343185018655   -0.10791963522901
O        -1.05460997693572    0.75626610386872    2.91844609041651
H        -1.99566076987851    0.89420073681324    2.79472072963408
10
 energy: -16.135369223274 xtb: 6.4.1 (afa7bdf)
C        -0.81825195926847    0.13050288280714    0.07900052353396
C         0.49240934716003   -0.04666835585488    0.09989482829910
Cl        1.58367756013397   -0.72407196835037   -2.49946299331702
H        -0.52214901759572    0.51765741522470    2.19028749874260
H        -1.50885953702397   -0.68956098799062    0.21026441706789
H        -1.26261462836861    1.08691668749770   -0.15471328891775
H         0.93430533410691   -1.01032528069486    0.27878121669677
H         1.17947370420577    0.75950245607054   -0.08419096690576
O        -0.99205192466433    0.76546181979982    3.00476551685088
H        -1.90565887868456    0.88653533148916    2.73828324794982
10
 energy: -16.135595334071 xtb: 6.4.1 (afa7bdf)
C        -0.94689370382711    0.14171147358968   -0.00810914717490
C         0.35946708170391   -0.01106616381394    0.12188426127634
Cl        1.78606579041289   -0.74749184568692   -2.34071684314298
H        -0.26586983162180    0.50329879934633    2.29994550635599
H        -1.63444885350793   -0.68419879833183    0.09970751904160
H        -1.38905577018791    1.08778308385330   -0.28356588447613
H         0.80283290642201   -0.96471083794522    0.34673725167786
H         1.04714177165257    0.80069264294398   -0.03517587663074
O        -0.85399685579778    0.74389415508032    3.03026436247685
H        -1.72496253524788    0.80603749096294    2.63193885059624
10
 energy: -16.135839092416 xtb: 6.4.1 (afa7bdf)
C        -1.03981477757561    0.14873052942168   -0.03351857117997
C         0.26324773062313   -0.00177895596175    0.12075141898574
Cl        1.94592778213143   -0.74046139512172   -2.22703648354893
H        -0.06413403010153    0.51403302276710    2.45755200218980
H        -1.72858946238436   -0.67777913146322    0.06353402070518
H        -1.48012466394815    1.09527784121807   -0.31131841117787
H         0.70449422539501   -0.95619679978768    0.34683727010646
H         0.95357666311673    0.80977868580983   -0.02568835632728
O        -0.80639982518109    0.74364211554117    3.02895402128899
H        -1.56790364207468    0.74070408757516    2.44284308895797
10
 energy: -16.150519905799 xtb: 6.4.1 (afa7bdf)
C        -1.48204216914058    0.29341028894614   -0.24859913199806
C        -0.38380209829189    0.04700819896599   -0.93170932456999
Cl        2.35650542640185   -0.36582952117449    1.28521559703948
H         0.39728215802061    0.02082308468363    2.03167303676710
H        -1.47578259177798    0.35850902824219    0.82437430564978
H        -2.43992464567183    0.44371397036365   -0.73318359508984
H         0.56228455391001   -0.10015141636326   -0.43723727723928
H        -0.38037948477103   -0.01904650368047   -2.01165658890477
O        -0.26367285712685    0.33049599253621    2.68837750853289
H         0.28981170844942    0.66701687748353    3.39565546981659
10
 energy: -16.151288884089 xtb: 6.4.1 (afa7bdf)
C        -1.52906023093379    0.30291989036568   -0.31610075182526
C        -0.41519544454540    0.05202530936360   -0.97201753380574
Cl        2.38789920313271   -0.36703069593117    1.31537315723129
H         0.51606251400009   -0.02892851897386    2.16628883358826
H        -1.53528702384480    0.36832893369268    0.75835344112369
H        -2.47824156360451    0.45099357897407   -0.81661912652475
H         0.51702840545121   -0.09308380963649   -0.45096141657672
H        -0.38529322481242   -0.02012291175829   -2.05082789900803
O        -0.19529780656891    0.27183937067187    2.77614603163906
H         0.29766517172745    0.73900885323502    3.45327526416199
10
 energy: -16.151664498765 xtb: 6.4.1 (afa7bdf)
C        -1.56044714812024    0.24326429389856   -0.23978586687757
C        -0.38515127062167    0.16739093088618   -0.82896496486736
Cl        2.39763694432846   -0.63789959128634    1.29502680598361
H         0.67615576700141   -0.24336429460953    2.40803065885320
H        -1.66324146165680    0.06487769227279    0.81781061126855
H        -2.46932798142735    0.48375944993035   -0.77725407030916
H         0.50770807967992   -0.07667378016359   -0.27486945865099
H        -0.26407493442788    0.34197083671780   -1.88927905195400
O        -0.08222897910449    0.21589830261166    2.83296951574403
H         0.02325098433713    1.11672615975587    2.51922582080154
