
                                 *****************
                                 * O   R   C   A *
                                 *****************

                                            #,                                       
                                            ###                                      
                                            ####                                     
                                            #####                                    
                                            ######                                   
                                           ########,                                 
                                     ,,################,,,,,                         
                               ,,#################################,,                 
                          ,,##########################################,,             
                       ,#########################################, ''#####,          
                    ,#############################################,,   '####,        
                  ,##################################################,,,,####,       
                ,###########''''           ''''###############################       
              ,#####''   ,,,,##########,,,,          '''####'''          '####       
            ,##' ,,,,###########################,,,                        '##       
           ' ,,###''''                  '''############,,,                           
         ,,##''                                '''############,,,,        ,,,,,,###''
      ,#''                                            '''#######################'''  
     '                                                          ''''####''''         
             ,#######,   #######,   ,#######,      ##                                
            ,#'     '#,  ##    ##  ,#'     '#,    #''#        ######   ,####,        
            ##       ##  ##   ,#'  ##            #'  '#       #        #'  '#        
            ##       ##  #######   ##           ,######,      #####,   #    #        
            '#,     ,#'  ##    ##  '#,     ,#' ,#      #,         ##   #,  ,#        
             '#######'   ##     ##  '#######'  #'      '#     #####' # '####'        



                  #######################################################
                  #                        -***-                        #
                  #          Department of theory and spectroscopy      #
                  #    Directorship and core code : Frank Neese         #
                  #        Max Planck Institute fuer Kohlenforschung    #
                  #                Kaiser Wilhelm Platz 1               #
                  #                 D-45470 Muelheim/Ruhr               #
                  #                      Germany                        #
                  #                                                     #
                  #                  All rights reserved                #
                  #                        -***-                        #
                  #######################################################


                         Program Version 5.0.3 -  RELEASE  -


 With contributions from (in alphabetic order):
   Daniel Aravena         : Magnetic Suceptibility
   Michael Atanasov       : Ab Initio Ligand Field Theory (pilot matlab implementation)
   Alexander A. Auer      : GIAO ZORA, VPT2 properties, NMR spectrum
   Ute Becker             : Parallelization
   Giovanni Bistoni       : ED, misc. LED, open-shell LED, HFLD
   Martin Brehm           : Molecular dynamics
   Dmytro Bykov           : SCF Hessian
   Vijay G. Chilkuri      : MRCI spin determinant printing, contributions to CSF-ICE
   Dipayan Datta          : RHF DLPNO-CCSD density
   Achintya Kumar Dutta   : EOM-CC, STEOM-CC
   Dmitry Ganyushin       : Spin-Orbit,Spin-Spin,Magnetic field MRCI
   Miquel Garcia          : C-PCM and meta-GGA Hessian, CC/C-PCM, Gaussian charge scheme
   Yang Guo               : DLPNO-NEVPT2, F12-NEVPT2, CIM, IAO-localization
   Andreas Hansen         : Spin unrestricted coupled pair/coupled cluster methods
   Benjamin Helmich-Paris : MC-RPA, TRAH-SCF, COSX integrals
   Lee Huntington         : MR-EOM, pCC
   Robert Izsak           : Overlap fitted RIJCOSX, COSX-SCS-MP3, EOM
   Marcus Kettner         : VPT2
   Christian Kollmar      : KDIIS, OOCD, Brueckner-CCSD(T), CCSD density, CASPT2, CASPT2-K
   Simone Kossmann        : Meta GGA functionals, TD-DFT gradient, OOMP2, MP2 Hessian
   Martin Krupicka        : Initial AUTO-CI
   Lucas Lang             : DCDCAS
   Marvin Lechner         : AUTO-CI (C++ implementation), FIC-MRCC
   Dagmar Lenk            : GEPOL surface, SMD
   Dimitrios Liakos       : Extrapolation schemes; Compound Job, initial MDCI parallelization
   Dimitrios Manganas     : Further ROCIS development; embedding schemes
   Dimitrios Pantazis     : SARC Basis sets
   Anastasios Papadopoulos: AUTO-CI, single reference methods and gradients
   Taras Petrenko         : DFT Hessian,TD-DFT gradient, ASA, ECA, R-Raman, ABS, FL, XAS/XES, NRVS
   Peter Pinski           : DLPNO-MP2, DLPNO-MP2 Gradient
   Christoph Reimann      : Effective Core Potentials
   Marius Retegan         : Local ZFS, SOC
   Christoph Riplinger    : Optimizer, TS searches, QM/MM, DLPNO-CCSD(T), (RO)-DLPNO pert. Triples
   Tobias Risthaus        : Range-separated hybrids, TD-DFT gradient, RPA, STAB
   Michael Roemelt        : Original ROCIS implementation
   Masaaki Saitow         : Open-shell DLPNO-CCSD energy and density
   Barbara Sandhoefer     : DKH picture change effects
   Avijit Sen             : IP-ROCIS
   Kantharuban Sivalingam : CASSCF convergence, NEVPT2, FIC-MRCI
   Bernardo de Souza      : ESD, SOC TD-DFT
   Georgi Stoychev        : AutoAux, RI-MP2 NMR, DLPNO-MP2 response
   Willem Van den Heuvel  : Paramagnetic NMR
   Boris Wezisla          : Elementary symmetry handling
   Frank Wennmohs         : Technical directorship


 We gratefully acknowledge several colleagues who have allowed us to
 interface, adapt or use parts of their codes:
   Stefan Grimme, W. Hujo, H. Kruse, P. Pracht,  : VdW corrections, initial TS optimization,
                  C. Bannwarth, S. Ehlert          DFT functionals, gCP, sTDA/sTD-DF
   Ed Valeev, F. Pavosevic, A. Kumar             : LibInt (2-el integral package), F12 methods
   Garnet Chan, S. Sharma, J. Yang, R. Olivares  : DMRG
   Ulf Ekstrom                                   : XCFun DFT Library
   Mihaly Kallay                                 : mrcc  (arbitrary order and MRCC methods)
   Jiri Pittner, Ondrej Demel                    : Mk-CCSD
   Frank Weinhold                                : gennbo (NPA and NBO analysis)
   Christopher J. Cramer and Donald G. Truhlar   : smd solvation model
   Lars Goerigk                                  : TD-DFT with DH, B97 family of functionals
   V. Asgeirsson, H. Jonsson                     : NEB implementation
   FAccTs GmbH                                   : IRC, NEB, NEB-TS, DLPNO-Multilevel, CI-OPT
                                                   MM, QMMM, 2- and 3-layer-ONIOM, Crystal-QMMM,
                                                   LR-CPCM, SF, NACMEs, symmetry and pop. for TD-DFT,
                                                   nearIR, NL-DFT gradient (VV10), updates on ESD,
                                                   ML-optimized integration grids
   S Lehtola, MJT Oliveira, MAL Marques          : LibXC Library
   Liviu Ungur et al                             : ANISO software


 Your calculation uses the libint2 library for the computation of 2-el integrals
 For citations please refer to: http://libint.valeyev.net

 Your ORCA version has been built with support for libXC version: 5.1.0
 For citations please refer to: https://tddft.org/programs/libxc/

 This ORCA versions uses:
   CBLAS   interface :  Fast vector & matrix operations
   LAPACKE interface :  Fast linear algebra routines
   SCALAPACK package :  Parallel linear algebra routines
   Shared memory     :  Shared parallel matrices
   BLAS/LAPACK       :  OpenBLAS 0.3.15  USE64BITINT DYNAMIC_ARCH NO_AFFINITY Zen SINGLE_THREADED
        Core in use  :  Zen
   Copyright (c) 2011-2014, The OpenBLAS Project


XCFun DFT library Copyright 2009-2010 Ulf Ekstrom and contributors.
See http://admol.org/xcfun for more information.
This is free software; see the source code for copying conditions.
There is ABSOLUTELY NO WARRANTY; not even for MERCHANTABILITY or FITNESS FOR A PARTICULAR PURPOSE.
For details see the documentation.
Scientific users of this library should cite U. Ekstrom, L. Visscher, R. Bast, A. J. Thorvaldsen and K. Ruud;
J.Chem.Theor.Comp. 2010, DOI: 10.1021/ct100117s
XCFun Version 0.99 

================================================================================

----- Orbital basis set information -----
Your calculation utilizes the basis: def2-SVP
   F. Weigend and R. Ahlrichs, Phys. Chem. Chem. Phys. 7, 3297 (2005).

----- AuxJ basis set information -----
Your calculation utilizes the auxiliary basis: def2/J
   F. Weigend, Phys. Chem. Chem. Phys. 8, 1057 (2006).

================================================================================
                                        WARNINGS
                       Please study these warnings very carefully!
================================================================================


WARNING: Geometry Optimization
  ===> : Switching off AutoStart
         For restart on a previous wavefunction, please use MOREAD

WARNING: Minnesota functionals are quite sensitive to the integration grid.
         see SE Wheeler, KN Houk, JCTC 2010, 6, 395,
             N Mardirossian, M Head-Gordon, JCTC 2016, 12, 4303.
         DEFGRID3 seems to be a minimum grid for reliable results with these functionals!
  ===> : Please increase the integration grid!


INFO   : the flag for use of the SHARK integral package has been found!

================================================================================
                                       INPUT FILE
================================================================================
NAME = calc.inp
|  1> !OPTTS M062X Def2-SVP
|  2> *xyz 0 1
|  3> N    1.08764072  -0.33994563  -0.00972525
|  4> H    1.99826837   0.05502843   0.00651241
|  5> H    0.59453997  -0.48560162   0.83949232
|  6> H    0.66998094  -0.58930117  -0.87511947
|  7> *
|  8> %pal
|  9> nprocs 4
| 10> endd                         ****END OF INPUT****
================================================================================

                       *****************************
                       * Geometry Optimization Run *
                       *****************************

Geometry optimization settings:
Update method            Update   .... Bofill
Choice of coordinates    CoordSys .... Z-matrix Internals
Initial Hessian          InHess   .... Almoef's Model

Convergence Tolerances:
Energy Change            TolE     ....  5.0000e-06 Eh
Max. Gradient            TolMAXG  ....  3.0000e-04 Eh/bohr
RMS Gradient             TolRMSG  ....  1.0000e-04 Eh/bohr
Max. Displacement        TolMAXD  ....  4.0000e-03 bohr
RMS Displacement         TolRMSD  ....  2.0000e-03 bohr
Strict Convergence                ....  False
------------------------------------------------------------------------------
                        ORCA OPTIMIZATION COORDINATE SETUP
------------------------------------------------------------------------------

The optimization will be done in new redundant internal coordinates
Making redundant internal coordinates   ...  (new redundants) done
Following TS mode number                ...     0
Evaluating the initial hessian          ...  (Almloef) done
Evaluating the coordinates              ...  done
Calculating the B-matrix                .... done
Calculating the G-matrix                .... done
Diagonalizing the G-matrix              .... done
The first mode is                       ....    1
The number of degrees of freedom        ....    6

    -----------------------------------------------------------------
                    Redundant Internal Coordinates


    -----------------------------------------------------------------
         Definition                    Initial Value    Approx d2E/dq
    -----------------------------------------------------------------
      1. B(H   1,N   0)                  0.9927         0.461052   
      2. B(H   2,N   0)                  0.9927         0.461032   
      3. B(H   3,N   0)                  0.9927         0.461040   
      4. A(H   1,N   0,H   3)          120.0077         0.309499   
      5. A(H   2,N   0,H   3)          119.9916         0.309497   
      6. A(H   1,N   0,H   2)          120.0007         0.309498   
      7. I(H   1,H   3,H   2,N   0)      0.0008         0.029645   
    -----------------------------------------------------------------

Number of atoms                         .... 4
Number of degrees of freedom            .... 7

         *************************************************************
         *                GEOMETRY OPTIMIZATION CYCLE   1            *
         *************************************************************
---------------------------------
CARTESIAN COORDINATES (ANGSTROEM)
---------------------------------
  N      1.087641   -0.339946   -0.009725
  H      1.998268    0.055028    0.006512
  H      0.594540   -0.485602    0.839492
  H      0.669981   -0.589301   -0.875119

----------------------------
CARTESIAN COORDINATES (A.U.)
----------------------------
  NO LB      ZA    FRAG     MASS         X           Y           Z
   0 N     7.0000    0    14.007    2.055343   -0.642404   -0.018378
   1 H     1.0000    0     1.008    3.776180    0.103989    0.012307
   2 H     1.0000    0     1.008    1.123518   -0.917654    1.586411
   3 H     1.0000    0     1.008    1.266080   -1.113618   -1.653736

--------------------------------
INTERNAL COORDINATES (ANGSTROEM)
--------------------------------
 N      0   0   0     0.000000000000     0.00000000     0.00000000
 H      1   0   0     0.992729009660     0.00000000     0.00000000
 H      1   2   0     0.992740901882   120.00072922     0.00000000
 H      1   2   3     0.992736134714   120.00768762   179.99907711

---------------------------
INTERNAL COORDINATES (A.U.)
---------------------------
 N      0   0   0     0.000000000000     0.00000000     0.00000000
 H      1   0   0     1.875985953455     0.00000000     0.00000000
 H      1   2   0     1.876008426500   120.00072922     0.00000000
 H      1   2   3     1.875999417858   120.00768762   179.99907711

---------------------
BASIS SET INFORMATION
---------------------
There are 2 groups of distinct atoms

 Group   1 Type N   : 7s4p1d contracted to 3s2p1d pattern {511/31/1}
 Group   2 Type H   : 4s1p contracted to 2s1p pattern {31/1}

Atom   0N    basis set group =>   1
Atom   1H    basis set group =>   2
Atom   2H    basis set group =>   2
Atom   3H    basis set group =>   2
---------------------------------
AUXILIARY/J BASIS SET INFORMATION
---------------------------------
There are 2 groups of distinct atoms

 Group   1 Type N   : 12s5p4d2f1g contracted to 6s4p3d1f1g pattern {711111/2111/211/2/1}
 Group   2 Type H   : 5s2p1d contracted to 3s1p1d pattern {311/2/1}

Atom   0N    basis set group =>   1
Atom   1H    basis set group =>   2
Atom   2H    basis set group =>   2
Atom   3H    basis set group =>   2


           ************************************************************
           *        Program running with 4 parallel MPI-processes     *
           *              working on a common directory               *
           ************************************************************
------------------------------------------------------------------------------
                           ORCA GTO INTEGRAL CALCULATION
                           -- RI-GTO INTEGRALS CHOSEN --
------------------------------------------------------------------------------
[web:03884] Read -1, expected 651728, errno = 1
[web:03882] Read -1, expected 651728, errno = 1
[web:03883] Read -1, expected 651728, errno = 1
[web:03882] Read -1, expected 27448, errno = 1
[web:03884] Read -1, expected 27448, errno = 1
[web:03883] Read -1, expected 27448, errno = 1
------------------------------------------------------------------------------
                   ___                                                        
                  /   \      - P O W E R E D   B Y -                         
                 /     \                                                     
                 |  |  |   _    _      __       _____    __    __             
                 |  |  |  | |  | |    /  \     |  _  \  |  |  /  |          
                  \  \/   | |  | |   /    \    | | | |  |  | /  /          
                 / \  \   | |__| |  /  /\  \   | |_| |  |  |/  /          
                |  |  |   |  __  | /  /__\  \  |    /   |      \           
                |  |  |   | |  | | |   __   |  |    \   |  |\   \          
                \     /   | |  | | |  |  |  |  | |\  \  |  | \   \       
                 \___/    |_|  |_| |__|  |__|  |_| \__\ |__|  \__/        
                                                                              
                      - O R C A' S   B I G   F R I E N D -                    
                                      &                                       
                       - I N T E G R A L  F E E D E R -                       
                                                                              
 v1 FN, 2020, v2 2021                                                         
------------------------------------------------------------------------------


Reading SHARK input file calc.SHARKINP.tmp ... [web:03883] Read -1, expected 4136, errno = 1
[web:03882] Read -1, expected 4136, errno = 1
[web:03884] Read -1, expected 4136, errno = 1
ok
----------------------
SHARK INTEGRAL PACKAGE
----------------------

Number of atoms                             ...      4
Number of basis functions                   ...     29
Number of shells                            ...     15
Maximum angular momentum                    ...      2
Integral batch strategy                     ... SHARK/LIBINT Hybrid
RI-J (if used) integral strategy            ... SPLIT-RIJ (Revised 2003 algorithm where possible)
Printlevel                                  ...      1
Contraction scheme used                     ... SEGMENTED contraction
Coulomb Range Separation                    ... NOT USED
Exchange Range Separation                   ... NOT USED
Finite Nucleus Model                        ... NOT USED
Auxiliary Coulomb fitting basis             ... AVAILABLE
   # of basis functions in Aux-J            ...     82
   # of shells in Aux-J                     ...     30
   Maximum angular momentum in Aux-J        ...      4
Auxiliary J/K fitting basis                 ... NOT available
Auxiliary Correlation fitting basis         ... NOT available
Auxiliary 'external' fitting basis          ... NOT available
Integral threshold                          ...     2.500000e-11
Primitive cut-off                           ...     2.500000e-12
Primitive pair pre-selection threshold      ...     2.500000e-12

Calculating pre-screening integrals         ... done (  0.0 sec) Dimension = 15
Organizing shell pair data                  ... [web:03883] Read -1, expected 4136, errno = 1
[web:03882] Read -1, expected 4136, errno = 1
[web:03884] Read -1, expected 4136, errno = 1
done (  0.0 sec)
Shell pair information
Total number of shell pairs                 ...       120
Shell pairs after pre-screening             ...       120
Total number of primitive shell pairs       ...       400
Primitive shell pairs kept                  ...       388
          la=0 lb=0:     45 shell pairs
          la=1 lb=0:     45 shell pairs
          la=1 lb=1:     15 shell pairs
          la=2 lb=0:      9 shell pairs
          la=2 lb=1:      5 shell pairs
          la=2 lb=2:      1 shell pairs

Calculating one electron integrals          ... done (  0.0 sec)
Calculating RI/J V-Matrix + Cholesky decomp.... [web:03884] Read -1, expected 4136, errno = 1
[web:03883] Read -1, expected 4136, errno = 1
[web:03882] Read -1, expected 4136, errno = 1
[web:03883] Read -1, expected 4136, errno = 1
[web:03882] Read -1, expected 4136, errno = 1
[web:03884] Read -1, expected 4136, errno = 1
done (  0.0 sec)
Calculating Nuclear repulsion               ... done (  0.0 sec) ENN=     12.117311228155 Eh

SHARK setup successfully completed in   0.1 seconds

Maximum memory used throughout the entire GTOINT-calculation: 8.8 MB


           ************************************************************
           *        Program running with 4 parallel MPI-processes     *
           *              working on a common directory               *
           ************************************************************
[web:03899] Read -1, expected 651728, errno = 1
[web:03900] Read -1, expected 651728, errno = 1
[web:03901] Read -1, expected 651728, errno = 1
[web:03899] Read -1, expected 27448, errno = 1
[web:03900] Read -1, expected 27448, errno = 1
[web:03901] Read -1, expected 27448, errno = 1
-------------------------------------------------------------------------------
                                 ORCA SCF
-------------------------------------------------------------------------------

------------
SCF SETTINGS
------------
Hamiltonian:
 Density Functional     Method          .... DFT(GTOs)
 Exchange Functional    Exchange        .... M062X
 Correlation Functional Correlation     .... M062X
 Gradients option       PostSCFGGA      .... off
 Hybrid DFT is turned on
   Fraction HF Exchange ScalHFX         ....  0.540000
   Scaling of DF-GGA-X  ScalDFX         ....  0.460000
   Scaling of DF-GGA-C  ScalDFC         ....  1.000000
   Scaling of DF-LDA-C  ScalLDAC        ....  1.000000
   Perturbative correction              ....  0.000000
   Density functional embedding theory  .... OFF
 RI-approximation to the Coulomb term is turned on
   Number of AuxJ basis functions       .... 82
   RIJ-COSX (HFX calculated with COS-X)).... on


General Settings:
 Integral files         IntName         .... calc
 Hartree-Fock type      HFTyp           .... RHF
 Total Charge           Charge          ....    0
 Multiplicity           Mult            ....    1
 Number of Electrons    NEL             ....   10
 Basis Dimension        Dim             ....   29
 Nuclear Repulsion      ENuc            ....     12.1173112282 Eh

Convergence Acceleration:
 DIIS                   CNVDIIS         .... on
   Start iteration      DIISMaxIt       ....    12
   Startup error        DIISStart       ....  0.200000
   # of expansion vecs  DIISMaxEq       ....     5
   Bias factor          DIISBfac        ....   1.050
   Max. coefficient     DIISMaxC        ....  10.000
 Trust-Rad. Augm. Hess. CNVTRAH         .... auto
   Auto Start mean grad. ratio tolernc. ....  1.125000
   Auto Start start iteration           ....    20
   Auto Start num. interpolation iter.  ....    10
   Max. Number of Micro iterations      ....    16
   Max. Number of Macro iterations      .... Maxiter - #DIIS iter
   Number of Davidson start vectors     ....     2
   Converg. threshold I  (grad. norm)   ....   1.000e-05
   Converg. threshold II (energy diff.) ....   1.000e-08
   Grad. Scal. Fac. for Micro threshold ....   0.100
   Minimum threshold for Micro iter.    ....   0.010
   NR start threshold (gradient norm)   ....   0.001
   Initial trust radius                 ....   0.400
   Minimum AH scaling param. (alpha)    ....   1.000
   Maximum AH scaling param. (alpha)    .... 1000.000
   Orbital update algorithm             .... Taylor
   White noise on init. David. guess    .... on
   Maximum white noise                  ....   0.010
   Quad. conv. algorithm                .... NR
 SOSCF                  CNVSOSCF        .... on
   Start iteration      SOSCFMaxIt      ....   150
   Startup grad/error   SOSCFStart      ....  0.003300
 Level Shifting         CNVShift        .... on
   Level shift para.    LevelShift      ....    0.2500
   Turn off err/grad.   ShiftErr        ....    0.0010
 Zerner damping         CNVZerner       .... off
 Static damping         CNVDamp         .... on
   Fraction old density DampFac         ....    0.7000
   Max. Damping (<1)    DampMax         ....    0.9800
   Min. Damping (>=0)   DampMin         ....    0.0000
   Turn off err/grad.   DampErr         ....    0.1000
 Fernandez-Rico         CNVRico         .... off

SCF Procedure:
 Maximum # iterations   MaxIter         ....   125
 SCF integral mode      SCFMode         .... Direct
   Integral package                     .... SHARK and LIBINT hybrid scheme
 Reset frequency        DirectResetFreq ....    20
 Integral Threshold     Thresh          ....  2.500e-11 Eh
 Primitive CutOff       TCut            ....  2.500e-12 Eh

Convergence Tolerance:
 Convergence Check Mode ConvCheckMode   .... Total+1el-Energy
 Convergence forced     ConvForced      .... 0
 Energy Change          TolE            ....  1.000e-08 Eh
 1-El. energy change                    ....  1.000e-05 Eh
 Orbital Gradient       TolG            ....  1.000e-05
 Orbital Rotation angle TolX            ....  1.000e-05
 DIIS Error             TolErr          ....  5.000e-07


Diagonalization of the overlap matrix:
[web:03901] Read -1, expected 4136, errno = 1
[web:03900] Read -1, expected 4136, errno = 1
[web:03899] Read -1, expected 4136, errno = 1
Smallest eigenvalue                        ... 3.440e-02
Time for diagonalization                   ...    0.000 sec
Threshold for overlap eigenvalues          ... 1.000e-08
Number of eigenvalues below threshold      ... 0
Time for construction of square roots      ...    0.000 sec
Total time needed                          ...    0.001 sec

[web:03899] Read -1, expected 4136, errno = 1
[web:03901] Read -1, expected 4136, errno = 1
[web:03900] Read -1, expected 4136, errno = 1
[web:03899] Read -1, expected 4136, errno = 1
[web:03901] Read -1, expected 4136, errno = 1
[web:03900] Read -1, expected 4136, errno = 1
[web:03901] Read -1, expected 69824, errno = 1
[web:03899] Read -1, expected 69824, errno = 1
[web:03900] Read -1, expected 69824, errno = 1
[web:03901] Read -1, expected 26816, errno = 1
[web:03900] Read -1, expected 26816, errno = 1
[web:03898] Read -1, expected 26816, errno = 1
[web:03901] Read -1, expected 26656, errno = 1
[web:03899] Read -1, expected 26656, errno = 1
[web:03898] Read -1, expected 26656, errno = 1
[web:03899] Read -1, expected 26624, errno = 1
[web:03898] Read -1, expected 26624, errno = 1
[web:03900] Read -1, expected 26624, errno = 1
[web:03901] Read -1, expected 52368, errno = 1
[web:03899] Read -1, expected 52368, errno = 1
[web:03900] Read -1, expected 52368, errno = 1
[web:03900] Read -1, expected 20112, errno = 1
[web:03901] Read -1, expected 20112, errno = 1
[web:03898] Read -1, expected 20112, errno = 1
[web:03901] Read -1, expected 19992, errno = 1
[web:03898] Read -1, expected 19992, errno = 1
[web:03899] Read -1, expected 19992, errno = 1
[web:03898] Read -1, expected 19968, errno = 1
[web:03900] Read -1, expected 19968, errno = 1
[web:03899] Read -1, expected 19968, errno = 1
[web:03901] Read -1, expected 78280, errno = 1
[web:03900] Read -1, expected 78280, errno = 1
[web:03899] Read -1, expected 78280, errno = 1
[web:03901] Read -1, expected 78196, errno = 1
[web:03900] Read -1, expected 78196, errno = 1
[web:03901] Read -1, expected 77440, errno = 1
[web:03898] Read -1, expected 78196, errno = 1
[web:03899] Read -1, expected 77440, errno = 1
[web:03899] Read -1, expected 76648, errno = 1
[web:03898] Read -1, expected 77440, errno = 1
[web:03898] Read -1, expected 76648, errno = 1
[web:03900] Read -1, expected 76648, errno = 1
Time for model grid setup =    0.010 sec

------------------------------
INITIAL GUESS: MODEL POTENTIAL
------------------------------
Loading Hartree-Fock densities                     ... done
Calculating cut-offs                               ... done
Initializing the effective Hamiltonian             ... done
Setting up the integral package (SHARK)            ... done
Starting the Coulomb interaction                   ... [web:03901] Read -1, expected 4136, errno = 1
[web:03900] Read -1, expected 4136, errno = 1
[web:03899] Read -1, expected 4136, errno = 1
[web:03901] Read -1, expected 4136, errno = 1
[web:03900] Read -1, expected 4136, errno = 1
[web:03899] Read -1, expected 4136, errno = 1
done (   0.0 sec)
Reading the grid                                   ... done
Mapping shells                                     ... done
Starting the XC term evaluation                    ... done (   0.0 sec)
  promolecular density results
     # of electrons  =      9.998829766
     EX              =     -7.412858397
     EC              =     -0.305789826
     EX+EC           =     -7.718648223
[web:03901] Read -1, expected 4136, errno = 1
[web:03899] Read -1, expected 4136, errno = 1
[web:03900] Read -1, expected 4136, errno = 1
[web:03901] Read -1, expected 4136, errno = 1
[web:03900] Read -1, expected 4136, errno = 1
[web:03899] Read -1, expected 4136, errno = 1
Transforming the Hamiltonian                       ... done (   0.0 sec)
[web:03899] Read -1, expected 4136, errno = 1
[web:03900] Read -1, expected 4136, errno = 1
[web:03901] Read -1, expected 4136, errno = 1
Diagonalizing the Hamiltonian                      ... [web:03899] Read -1, expected 4136, errno = 1
[web:03900] Read -1, expected 4136, errno = 1
[web:03901] Read -1, expected 4136, errno = 1
[web:03899] Read -1, expected 4136, errno = 1
[web:03900] Read -1, expected 4136, errno = 1
[web:03901] Read -1, expected 4136, errno = 1
done (   0.0 sec)
Back transforming the eigenvectors                 ... done (   0.0 sec)
Now organizing SCF variables                       ... done
                      ------------------
                      INITIAL GUESS DONE (   0.0 sec)
                      ------------------
[web:03900] Read -1, expected 4136, errno = 1
[web:03899] Read -1, expected 4136, errno = 1
[web:03901] Read -1, expected 4136, errno = 1
[web:03899] Read -1, expected 4136, errno = 1
[web:03900] Read -1, expected 4136, errno = 1
[web:03901] Read -1, expected 4136, errno = 1
-------------------
DFT GRID GENERATION
-------------------

General Integration Accuracy     IntAcc      ... 4.388
Radial Grid Type                 RadialGrid  ... OptM3 with GC (2021)
Angular Grid (max. ang.)         AngularGrid ... 4 (Lebedev-302)
Angular grid pruning method      GridPruning ... 4 (adaptive)
Weight generation scheme         WeightScheme... Becke
Basis function cutoff            BFCut       ... 1.0000e-11
Integration weight cutoff        WCut        ... 1.0000e-14
Angular grids for H and He will be reduced by one unit
Partially contracted basis set               ... off
Rotationally invariant grid construction     ... off

[web:03900] Read -1, expected 196128, errno = 1
[web:03899] Read -1, expected 196128, errno = 1
[web:03901] Read -1, expected 196128, errno = 1
[web:03898] Read -1, expected 105632, errno = 1
[web:03900] Read -1, expected 105632, errno = 1
[web:03901] Read -1, expected 105632, errno = 1
[web:03901] Read -1, expected 105440, errno = 1
[web:03898] Read -1, expected 105440, errno = 1
[web:03899] Read -1, expected 105440, errno = 1
[web:03899] Read -1, expected 105408, errno = 1
[web:03900] Read -1, expected 105408, errno = 1
[web:03898] Read -1, expected 105408, errno = 1
[web:03901] Read -1, expected 147096, errno = 1
[web:03900] Read -1, expected 147096, errno = 1
[web:03899] Read -1, expected 147096, errno = 1
[web:03901] Read -1, expected 79224, errno = 1
[web:03900] Read -1, expected 79224, errno = 1
[web:03898] Read -1, expected 79224, errno = 1
[web:03899] Read -1, expected 79080, errno = 1
[web:03898] Read -1, expected 79080, errno = 1
[web:03901] Read -1, expected 79080, errno = 1
[web:03899] Read -1, expected 79056, errno = 1
[web:03898] Read -1, expected 79056, errno = 1
[web:03900] Read -1, expected 79056, errno = 1
[web:03900] Read -1, expected 100000, errno = 1
[web:03899] Read -1, expected 100000, errno = 1
[web:03901] Read -1, expected 100000, errno = 1
[web:03900] Read -1, expected 100000, errno = 1
[web:03899] Read -1, expected 100000, errno = 1
[web:03901] Read -1, expected 100000, errno = 1
[web:03901] Read -1, expected 68072, errno = 1
[web:03899] Read -1, expected 68072, errno = 1
[web:03900] Read -1, expected 68072, errno = 1
[web:03900] Read -1, expected 100000, errno = 1
[web:03901] Read -1, expected 100000, errno = 1
[web:03900] Read -1, expected 100000, errno = 1
[web:03898] Read -1, expected 100000, errno = 1
[web:03901] Read -1, expected 100000, errno = 1
[web:03898] Read -1, expected 100000, errno = 1
[web:03901] Read -1, expected 68000, errno = 1
[web:03900] Read -1, expected 68000, errno = 1
[web:03901] Read -1, expected 100000, errno = 1
[web:03898] Read -1, expected 68000, errno = 1
[web:03899] Read -1, expected 100000, errno = 1
[web:03898] Read -1, expected 100000, errno = 1
[web:03901] Read -1, expected 100000, errno = 1
[web:03899] Read -1, expected 100000, errno = 1
[web:03898] Read -1, expected 100000, errno = 1
[web:03901] Read -1, expected 68804, errno = 1
[web:03899] Read -1, expected 68804, errno = 1
[web:03898] Read -1, expected 68804, errno = 1
[web:03899] Read -1, expected 100000, errno = 1
[web:03898] Read -1, expected 100000, errno = 1
[web:03900] Read -1, expected 100000, errno = 1
[web:03899] Read -1, expected 100000, errno = 1
[web:03898] Read -1, expected 100000, errno = 1
[web:03900] Read -1, expected 100000, errno = 1
[web:03899] Read -1, expected 55424, errno = 1
[web:03900] Read -1, expected 55424, errno = 1
[web:03898] Read -1, expected 55424, errno = 1
Total number of grid points                  ...    16019
Total number of batches                      ...      253
Average number of points per batch           ...       63
Average number of grid points per atom       ...     4005
Time for grid setup =    0.045 sec

--------------------
COSX GRID GENERATION
--------------------

GRIDX 1
-------
General Integration Accuracy     IntAcc      ... 3.816
Radial Grid Type                 RadialGrid  ... OptM3 with GC (2021)
Angular Grid (max. ang.)         AngularGrid ... 1 (Lebedev-50)
Angular grid pruning method      GridPruning ... 4 (adaptive)
Weight generation scheme         WeightScheme... Becke
Basis function cutoff            BFCut       ... 1.0000e-11
Integration weight cutoff        WCut        ... 1.0000e-14
Angular grids for H and He will be reduced by one unit
Partially contracted basis set               ... on
Rotationally invariant grid construction     ... off

[web:03899] Read -1, expected 24704, errno = 1
[web:03900] Read -1, expected 24704, errno = 1
[web:03900] Read -1, expected 14240, errno = 1
[web:03901] Read -1, expected 24704, errno = 1
[web:03901] Read -1, expected 14240, errno = 1
[web:03901] Read -1, expected 14112, errno = 1
[web:03900] Read -1, expected 14112, errno = 1
[web:03898] Read -1, expected 14240, errno = 1
[web:03898] Read -1, expected 14112, errno = 1
[web:03898] Read -1, expected 14112, errno = 1
[web:03899] Read -1, expected 14112, errno = 1
[web:03899] Read -1, expected 14112, errno = 1
[web:03899] Read -1, expected 18528, errno = 1
[web:03898] Read -1, expected 10680, errno = 1
[web:03898] Read -1, expected 10584, errno = 1
[web:03901] Read -1, expected 18528, errno = 1
[web:03901] Read -1, expected 10680, errno = 1
[web:03901] Read -1, expected 10584, errno = 1
[web:03900] Read -1, expected 18528, errno = 1
[web:03900] Read -1, expected 10680, errno = 1
[web:03899] Read -1, expected 10584, errno = 1
[web:03899] Read -1, expected 10584, errno = 1
[web:03900] Read -1, expected 10584, errno = 1
[web:03898] Read -1, expected 10584, errno = 1
[web:03899] Read -1, expected 34980, errno = 1
[web:03900] Read -1, expected 34980, errno = 1
[web:03900] Read -1, expected 34896, errno = 1
[web:03901] Read -1, expected 34980, errno = 1
[web:03901] Read -1, expected 34896, errno = 1
[web:03901] Read -1, expected 35136, errno = 1
[web:03898] Read -1, expected 34896, errno = 1
[web:03899] Read -1, expected 35136, errno = 1
[web:03899] Read -1, expected 35256, errno = 1
[web:03898] Read -1, expected 35136, errno = 1
[web:03900] Read -1, expected 35256, errno = 1
[web:03898] Read -1, expected 35256, errno = 1
Total number of grid points                  ...     2099
Total number of batches                      ...       36
Average number of points per batch           ...       58
Average number of grid points per atom       ...      525
UseSFitting                                  ... on
[web:03899] Read -1, expected 6728, errno = 1
[web:03899] Read -1, expected 6728, errno = 1
[web:03900] Read -1, expected 6728, errno = 1
[web:03900] Read -1, expected 6728, errno = 1
[web:03898] Read -1, expected 6728, errno = 1
[web:03898] Read -1, expected 6728, errno = 1
[web:03901] Read -1, expected 6728, errno = 1
[web:03901] Read -1, expected 6728, errno = 1

GRIDX 2
-------
General Integration Accuracy     IntAcc      ... 4.020
Radial Grid Type                 RadialGrid  ... OptM3 with GC (2021)
Angular Grid (max. ang.)         AngularGrid ... 2 (Lebedev-110)
Angular grid pruning method      GridPruning ... 4 (adaptive)
Weight generation scheme         WeightScheme... Becke
Basis function cutoff            BFCut       ... 1.0000e-11
Integration weight cutoff        WCut        ... 1.0000e-14
Angular grids for H and He will be reduced by one unit
Partially contracted basis set               ... on
Rotationally invariant grid construction     ... off

[web:03901] Read -1, expected 60448, errno = 1
[web:03899] Read -1, expected 60448, errno = 1
[web:03900] Read -1, expected 60448, errno = 1
[web:03900] Read -1, expected 25888, errno = 1
[web:03901] Read -1, expected 25888, errno = 1
[web:03898] Read -1, expected 25888, errno = 1
[web:03899] Read -1, expected 25728, errno = 1
[web:03901] Read -1, expected 25728, errno = 1
[web:03898] Read -1, expected 25728, errno = 1
[web:03899] Read -1, expected 25696, errno = 1
[web:03898] Read -1, expected 25696, errno = 1
[web:03900] Read -1, expected 25696, errno = 1
[web:03899] Read -1, expected 45336, errno = 1
[web:03900] Read -1, expected 45336, errno = 1
[web:03901] Read -1, expected 45336, errno = 1
[web:03900] Read -1, expected 19416, errno = 1
[web:03901] Read -1, expected 19416, errno = 1
[web:03898] Read -1, expected 19416, errno = 1
[web:03899] Read -1, expected 19296, errno = 1
[web:03898] Read -1, expected 19296, errno = 1
[web:03901] Read -1, expected 19296, errno = 1
[web:03899] Read -1, expected 19272, errno = 1
[web:03898] Read -1, expected 19272, errno = 1
[web:03900] Read -1, expected 19272, errno = 1
[web:03899] Read -1, expected 75324, errno = 1
[web:03901] Read -1, expected 75324, errno = 1
[web:03900] Read -1, expected 75324, errno = 1
[web:03900] Read -1, expected 72708, errno = 1
[web:03901] Read -1, expected 72708, errno = 1
[web:03901] Read -1, expected 72816, errno = 1
[web:03898] Read -1, expected 72708, errno = 1
[web:03899] Read -1, expected 72816, errno = 1
[web:03899] Read -1, expected 64900, errno = 1
[web:03898] Read -1, expected 72816, errno = 1
[web:03900] Read -1, expected 64900, errno = 1
[web:03898] Read -1, expected 64900, errno = 1
Total number of grid points                  ...     4305
Total number of batches                      ...       70
Average number of points per batch           ...       61
Average number of grid points per atom       ...     1076
UseSFitting                                  ... on
[web:03900] Read -1, expected 6728, errno = 1
[web:03901] Read -1, expected 6728, errno = 1
[web:03899] Read -1, expected 6728, errno = 1
[web:03899] Read -1, expected 6728, errno = 1
[web:03898] Read -1, expected 6728, errno = 1
[web:03898] Read -1, expected 6728, errno = 1
[web:03900] Read -1, expected 6728, errno = 1
[web:03901] Read -1, expected 6728, errno = 1

GRIDX 3
-------
General Integration Accuracy     IntAcc      ... 4.338
Radial Grid Type                 RadialGrid  ... OptM3 with GC (2021)
Angular Grid (max. ang.)         AngularGrid ... 3 (Lebedev-194)
Angular grid pruning method      GridPruning ... 4 (adaptive)
Weight generation scheme         WeightScheme... Becke
Basis function cutoff            BFCut       ... 1.0000e-11
Integration weight cutoff        WCut        ... 1.0000e-14
Angular grids for H and He will be reduced by one unit
Partially contracted basis set               ... on
Rotationally invariant grid construction     ... off

[web:03900] Read -1, expected 134592, errno = 1
[web:03899] Read -1, expected 134592, errno = 1
[web:03901] Read -1, expected 134592, errno = 1
[web:03900] Read -1, expected 56416, errno = 1
[web:03901] Read -1, expected 56416, errno = 1
[web:03898] Read -1, expected 56416, errno = 1
[web:03901] Read -1, expected 56096, errno = 1
[web:03899] Read -1, expected 56096, errno = 1
[web:03898] Read -1, expected 56096, errno = 1
[web:03900] Read -1, expected 56384, errno = 1
[web:03899] Read -1, expected 56384, errno = 1
[web:03899] Read -1, expected 100944, errno = 1
[web:03898] Read -1, expected 56384, errno = 1
[web:03901] Read -1, expected 100944, errno = 1
[web:03900] Read -1, expected 100944, errno = 1
[web:03900] Read -1, expected 42312, errno = 1
[web:03898] Read -1, expected 42312, errno = 1
[web:03901] Read -1, expected 42312, errno = 1
[web:03901] Read -1, expected 42072, errno = 1
[web:03899] Read -1, expected 42072, errno = 1
[web:03898] Read -1, expected 42072, errno = 1
[web:03899] Read -1, expected 42288, errno = 1
[web:03898] Read -1, expected 42288, errno = 1
[web:03900] Read -1, expected 42288, errno = 1
[web:03901] Read -1, expected 100000, errno = 1
[web:03899] Read -1, expected 100000, errno = 1
[web:03900] Read -1, expected 100000, errno = 1
[web:03900] Read -1, expected 58936, errno = 1
[web:03899] Read -1, expected 58936, errno = 1
[web:03901] Read -1, expected 58936, errno = 1
[web:03900] Read -1, expected 100000, errno = 1
[web:03901] Read -1, expected 100000, errno = 1
[web:03900] Read -1, expected 58720, errno = 1
[web:03898] Read -1, expected 100000, errno = 1
[web:03901] Read -1, expected 58720, errno = 1
[web:03901] Read -1, expected 100000, errno = 1
[web:03898] Read -1, expected 58720, errno = 1
[web:03899] Read -1, expected 100000, errno = 1
[web:03898] Read -1, expected 100000, errno = 1
[web:03899] Read -1, expected 57160, errno = 1
[web:03901] Read -1, expected 57160, errno = 1
[web:03899] Read -1, expected 100000, errno = 1
[web:03898] Read -1, expected 57160, errno = 1
[web:03900] Read -1, expected 100000, errno = 1
[web:03898] Read -1, expected 100000, errno = 1
[web:03899] Read -1, expected 49976, errno = 1
[web:03900] Read -1, expected 49976, errno = 1
[web:03898] Read -1, expected 49976, errno = 1
Total number of grid points                  ...     9484
Total number of batches                      ...      150
Average number of points per batch           ...       63
Average number of grid points per atom       ...     2371
UseSFitting                                  ... on
[web:03901] Read -1, expected 6728, errno = 1
[web:03900] Read -1, expected 6728, errno = 1
[web:03899] Read -1, expected 6728, errno = 1
[web:03899] Read -1, expected 6728, errno = 1
[web:03898] Read -1, expected 6728, errno = 1
[web:03898] Read -1, expected 6728, errno = 1
[web:03900] Read -1, expected 6728, errno = 1
[web:03901] Read -1, expected 6728, errno = 1

Time for X-Grid setup             =    0.021 sec

--------------
SCF ITERATIONS
--------------
ITER       Energy         Delta-E        Max-DP      RMS-DP      [F,P]     Damp
               ***  Starting incremental Fock matrix formation  ***
[web:03900] Read -1, expected 4136, errno = 1
[web:03899] Read -1, expected 4136, errno = 1
[web:03901] Read -1, expected 4136, errno = 1
[web:03899] Read -1, expected 4136, errno = 1
[web:03900] Read -1, expected 4136, errno = 1
[web:03901] Read -1, expected 4136, errno = 1
[web:03899] Read -1, expected 4136, errno = 1
[web:03901] Read -1, expected 4136, errno = 1
[web:03900] Read -1, expected 4136, errno = 1
[web:03900] Read -1, expected 6728, errno = 1
[web:03901] Read -1, expected 6728, errno = 1
[web:03900] Read -1, expected 6728, errno = 1
[web:03898] Read -1, expected 6728, errno = 1
[web:03898] Read -1, expected 6728, errno = 1
[web:03899] Read -1, expected 6728, errno = 1
[web:03899] Read -1, expected 6728, errno = 1
[web:03901] Read -1, expected 6728, errno = 1
[web:03901] Read -1, expected 4136, errno = 1
[web:03899] Read -1, expected 4136, errno = 1
[web:03900] Read -1, expected 4136, errno = 1
[web:03901] Read -1, expected 4136, errno = 1
[web:03899] Read -1, expected 4136, errno = 1
[web:03900] Read -1, expected 4136, errno = 1
[web:03900] Read -1, expected 4136, errno = 1
[web:03899] Read -1, expected 4136, errno = 1
[web:03901] Read -1, expected 4136, errno = 1
[web:03899] Read -1, expected 4136, errno = 1
[web:03901] Read -1, expected 4136, errno = 1
[web:03900] Read -1, expected 4136, errno = 1
[web:03899] Read -1, expected 4136, errno = 1
[web:03900] Read -1, expected 4136, errno = 1
[web:03901] Read -1, expected 4136, errno = 1
[web:03900] Read -1, expected 6728, errno = 1
[web:03900] Read -1, expected 6728, errno = 1
[web:03899] Read -1, expected 6728, errno = 1
[web:03899] Read -1, expected 6728, errno = 1
[web:03898] Read -1, expected 6728, errno = 1
[web:03898] Read -1, expected 6728, errno = 1
[web:03901] Read -1, expected 6728, errno = 1
[web:03901] Read -1, expected 6728, errno = 1
[web:03901] Read -1, expected 4136, errno = 1
[web:03900] Read -1, expected 4136, errno = 1
[web:03899] Read -1, expected 4136, errno = 1
[web:03900] Read -1, expected 4136, errno = 1
[web:03899] Read -1, expected 4136, errno = 1
[web:03901] Read -1, expected 4136, errno = 1
[web:03899] Read -1, expected 4136, errno = 1
[web:03900] Read -1, expected 4136, errno = 1
[web:03901] Read -1, expected 4136, errno = 1
[web:03900] Read -1, expected 6728, errno = 1
[web:03899] Read -1, expected 6728, errno = 1
[web:03901] Read -1, expected 6728, errno = 1
[web:03899] Read -1, expected 4136, errno = 1
[web:03900] Read -1, expected 4136, errno = 1
[web:03901] Read -1, expected 4136, errno = 1
[web:03900] Read -1, expected 4136, errno = 1
[web:03899] Read -1, expected 4136, errno = 1
[web:03901] Read -1, expected 4136, errno = 1
  0    -56.3496496174   0.000000000000 0.09346199  0.00700413  0.3054955 0.7000
[web:03900] Read -1, expected 4136, errno = 1
[web:03899] Read -1, expected 4136, errno = 1
[web:03901] Read -1, expected 4136, errno = 1
[web:03900] Read -1, expected 4136, errno = 1
[web:03899] Read -1, expected 4136, errno = 1
[web:03901] Read -1, expected 4136, errno = 1
[web:03901] Read -1, expected 4136, errno = 1
[web:03899] Read -1, expected 4136, errno = 1
[web:03900] Read -1, expected 4136, errno = 1
[web:03899] Read -1, expected 4136, errno = 1
[web:03900] Read -1, expected 4136, errno = 1
[web:03901] Read -1, expected 4136, errno = 1
[web:03900] Read -1, expected 4136, errno = 1
[web:03899] Read -1, expected 4136, errno = 1
[web:03901] Read -1, expected 4136, errno = 1
[web:03900] Read -1, expected 6728, errno = 1
[web:03901] Read -1, expected 6728, errno = 1
[web:03901] Read -1, expected 6728, errno = 1
[web:03898] Read -1, expected 6728, errno = 1
[web:03898] Read -1, expected 6728, errno = 1
[web:03899] Read -1, expected 6728, errno = 1
[web:03899] Read -1, expected 6728, errno = 1
[web:03900] Read -1, expected 6728, errno = 1
[web:03900] Read -1, expected 4136, errno = 1
[web:03899] Read -1, expected 4136, errno = 1
[web:03901] Read -1, expected 4136, errno = 1
[web:03900] Read -1, expected 4136, errno = 1
[web:03901] Read -1, expected 4136, errno = 1
[web:03899] Read -1, expected 4136, errno = 1
[web:03899] Read -1, expected 4136, errno = 1
[web:03900] Read -1, expected 4136, errno = 1
[web:03901] Read -1, expected 4136, errno = 1
[web:03901] Read -1, expected 4136, errno = 1
[web:03900] Read -1, expected 4136, errno = 1
[web:03899] Read -1, expected 4136, errno = 1
[web:03900] Read -1, expected 4136, errno = 1
[web:03899] Read -1, expected 4136, errno = 1
[web:03901] Read -1, expected 4136, errno = 1
[web:03899] Read -1, expected 4136, errno = 1
[web:03900] Read -1, expected 4136, errno = 1
[web:03901] Read -1, expected 4136, errno = 1
[web:03899] Read -1, expected 6728, errno = 1
[web:03899] Read -1, expected 6728, errno = 1
[web:03901] Read -1, expected 6728, errno = 1
[web:03901] Read -1, expected 6728, errno = 1
[web:03900] Read -1, expected 6728, errno = 1
[web:03900] Read -1, expected 6728, errno = 1
[web:03898] Read -1, expected 6728, errno = 1
[web:03898] Read -1, expected 6728, errno = 1
[web:03900] Read -1, expected 4136, errno = 1
[web:03899] Read -1, expected 4136, errno = 1
[web:03901] Read -1, expected 4136, errno = 1
[web:03899] Read -1, expected 4136, errno = 1
[web:03900] Read -1, expected 4136, errno = 1
[web:03901] Read -1, expected 4136, errno = 1
[web:03900] Read -1, expected 4136, errno = 1
[web:03899] Read -1, expected 4136, errno = 1
[web:03901] Read -1, expected 4136, errno = 1
[web:03900] Read -1, expected 6728, errno = 1
[web:03899] Read -1, expected 6728, errno = 1
[web:03901] Read -1, expected 6728, errno = 1
[web:03900] Read -1, expected 4136, errno = 1
[web:03899] Read -1, expected 4136, errno = 1
[web:03901] Read -1, expected 4136, errno = 1
[web:03899] Read -1, expected 4136, errno = 1
[web:03900] Read -1, expected 4136, errno = 1
[web:03901] Read -1, expected 4136, errno = 1
  1    -56.4012462694  -0.051596652030 0.06060777  0.00455802  0.1587447 0.7000
[web:03900] Read -1, expected 4136, errno = 1
[web:03899] Read -1, expected 4136, errno = 1
[web:03901] Read -1, expected 4136, errno = 1
[web:03899] Read -1, expected 4136, errno = 1
[web:03901] Read -1, expected 4136, errno = 1
[web:03900] Read -1, expected 4136, errno = 1
[web:03899] Read -1, expected 4136, errno = 1
[web:03900] Read -1, expected 4136, errno = 1
[web:03901] Read -1, expected 4136, errno = 1
[web:03900] Read -1, expected 4136, errno = 1
[web:03899] Read -1, expected 4136, errno = 1
[web:03901] Read -1, expected 4136, errno = 1
[web:03899] Read -1, expected 4136, errno = 1
[web:03900] Read -1, expected 4136, errno = 1
[web:03901] Read -1, expected 4136, errno = 1
[web:03899] Read -1, expected 6728, errno = 1
[web:03898] Read -1, expected 6728, errno = 1
[web:03901] Read -1, expected 6728, errno = 1
[web:03901] Read -1, expected 6728, errno = 1
[web:03900] Read -1, expected 6728, errno = 1
[web:03900] Read -1, expected 6728, errno = 1
[web:03899] Read -1, expected 6728, errno = 1
[web:03898] Read -1, expected 6728, errno = 1
[web:03900] Read -1, expected 4136, errno = 1
[web:03901] Read -1, expected 4136, errno = 1
[web:03899] Read -1, expected 4136, errno = 1
[web:03900] Read -1, expected 4136, errno = 1
[web:03899] Read -1, expected 4136, errno = 1
[web:03901] Read -1, expected 4136, errno = 1
[web:03899] Read -1, expected 4136, errno = 1
[web:03901] Read -1, expected 4136, errno = 1
[web:03900] Read -1, expected 4136, errno = 1
[web:03900] Read -1, expected 4136, errno = 1
[web:03899] Read -1, expected 4136, errno = 1
[web:03901] Read -1, expected 4136, errno = 1
[web:03899] Read -1, expected 4136, errno = 1
[web:03900] Read -1, expected 4136, errno = 1
[web:03901] Read -1, expected 4136, errno = 1
[web:03900] Read -1, expected 4136, errno = 1
[web:03899] Read -1, expected 4136, errno = 1
[web:03901] Read -1, expected 4136, errno = 1
[web:03899] Read -1, expected 6728, errno = 1
[web:03900] Read -1, expected 6728, errno = 1
[web:03901] Read -1, expected 6728, errno = 1
[web:03898] Read -1, expected 6728, errno = 1
[web:03898] Read -1, expected 6728, errno = 1
[web:03899] Read -1, expected 6728, errno = 1
[web:03900] Read -1, expected 6728, errno = 1
[web:03901] Read -1, expected 6728, errno = 1
                               ***Turning on DIIS***
[web:03899] Read -1, expected 4136, errno = 1
[web:03900] Read -1, expected 4136, errno = 1
[web:03901] Read -1, expected 4136, errno = 1
[web:03899] Read -1, expected 4136, errno = 1
[web:03900] Read -1, expected 4136, errno = 1
[web:03901] Read -1, expected 4136, errno = 1
[web:03899] Read -1, expected 4136, errno = 1
[web:03900] Read -1, expected 4136, errno = 1
[web:03901] Read -1, expected 4136, errno = 1
[web:03901] Read -1, expected 6728, errno = 1
[web:03900] Read -1, expected 6728, errno = 1
[web:03899] Read -1, expected 6728, errno = 1
[web:03899] Read -1, expected 4136, errno = 1
[web:03900] Read -1, expected 4136, errno = 1
[web:03901] Read -1, expected 4136, errno = 1
[web:03900] Read -1, expected 4136, errno = 1
[web:03899] Read -1, expected 4136, errno = 1
[web:03901] Read -1, expected 4136, errno = 1
  2    -56.4235950346  -0.022348765163 0.09333973  0.00713654  0.0638550 0.0000
[web:03899] Read -1, expected 4136, errno = 1
[web:03900] Read -1, expected 4136, errno = 1
[web:03901] Read -1, expected 4136, errno = 1
[web:03900] Read -1, expected 4136, errno = 1
[web:03899] Read -1, expected 4136, errno = 1
[web:03901] Read -1, expected 4136, errno = 1
[web:03900] Read -1, expected 4136, errno = 1
[web:03899] Read -1, expected 4136, errno = 1
[web:03901] Read -1, expected 4136, errno = 1
[web:03899] Read -1, expected 4136, errno = 1
[web:03900] Read -1, expected 4136, errno = 1
[web:03901] Read -1, expected 4136, errno = 1
[web:03900] Read -1, expected 4136, errno = 1
[web:03899] Read -1, expected 4136, errno = 1
[web:03901] Read -1, expected 4136, errno = 1
[web:03899] Read -1, expected 6728, errno = 1
[web:03900] Read -1, expected 6728, errno = 1
[web:03898] Read -1, expected 6728, errno = 1
[web:03901] Read -1, expected 6728, errno = 1
[web:03901] Read -1, expected 6728, errno = 1
[web:03898] Read -1, expected 6728, errno = 1
[web:03899] Read -1, expected 6728, errno = 1
[web:03900] Read -1, expected 6728, errno = 1
[web:03899] Read -1, expected 4136, errno = 1
[web:03900] Read -1, expected 4136, errno = 1
[web:03901] Read -1, expected 4136, errno = 1
[web:03899] Read -1, expected 4136, errno = 1
[web:03901] Read -1, expected 4136, errno = 1
[web:03900] Read -1, expected 4136, errno = 1
[web:03901] Read -1, expected 4136, errno = 1
[web:03899] Read -1, expected 4136, errno = 1
[web:03900] Read -1, expected 4136, errno = 1
[web:03899] Read -1, expected 4136, errno = 1
[web:03901] Read -1, expected 4136, errno = 1
[web:03900] Read -1, expected 4136, errno = 1
[web:03901] Read -1, expected 4136, errno = 1
[web:03899] Read -1, expected 4136, errno = 1
[web:03900] Read -1, expected 4136, errno = 1
[web:03899] Read -1, expected 4136, errno = 1
[web:03901] Read -1, expected 4136, errno = 1
[web:03900] Read -1, expected 4136, errno = 1
[web:03901] Read -1, expected 6728, errno = 1
[web:03898] Read -1, expected 6728, errno = 1
[web:03899] Read -1, expected 6728, errno = 1
[web:03899] Read -1, expected 6728, errno = 1
[web:03900] Read -1, expected 6728, errno = 1
[web:03901] Read -1, expected 6728, errno = 1
[web:03898] Read -1, expected 6728, errno = 1
[web:03900] Read -1, expected 6728, errno = 1
[web:03901] Read -1, expected 4136, errno = 1
[web:03900] Read -1, expected 4136, errno = 1
[web:03899] Read -1, expected 4136, errno = 1
[web:03900] Read -1, expected 4136, errno = 1
[web:03901] Read -1, expected 4136, errno = 1
[web:03899] Read -1, expected 4136, errno = 1
[web:03900] Read -1, expected 4136, errno = 1
[web:03899] Read -1, expected 4136, errno = 1
[web:03901] Read -1, expected 4136, errno = 1
[web:03900] Read -1, expected 4136, errno = 1
[web:03899] Read -1, expected 4136, errno = 1
[web:03901] Read -1, expected 4136, errno = 1
[web:03899] Read -1, expected 4136, errno = 1
[web:03900] Read -1, expected 4136, errno = 1
[web:03901] Read -1, expected 4136, errno = 1
[web:03899] Read -1, expected 4136, errno = 1
[web:03900] Read -1, expected 4136, errno = 1
[web:03901] Read -1, expected 4136, errno = 1
[web:03900] Read -1, expected 4136, errno = 1
[web:03899] Read -1, expected 4136, errno = 1
[web:03901] Read -1, expected 4136, errno = 1
[web:03899] Read -1, expected 4136, errno = 1
[web:03900] Read -1, expected 4136, errno = 1
[web:03901] Read -1, expected 4136, errno = 1
[web:03900] Read -1, expected 6728, errno = 1
[web:03899] Read -1, expected 6728, errno = 1
[web:03901] Read -1, expected 6728, errno = 1
[web:03900] Read -1, expected 4136, errno = 1
[web:03899] Read -1, expected 4136, errno = 1
[web:03901] Read -1, expected 4136, errno = 1
[web:03900] Read -1, expected 4136, errno = 1
[web:03899] Read -1, expected 4136, errno = 1
[web:03901] Read -1, expected 4136, errno = 1
  3    -56.4563480858  -0.032753051209 0.04322447  0.00325172  0.0821522 0.0000
[web:03899] Read -1, expected 4136, errno = 1
[web:03900] Read -1, expected 4136, errno = 1
[web:03901] Read -1, expected 4136, errno = 1
[web:03900] Read -1, expected 4136, errno = 1
[web:03899] Read -1, expected 4136, errno = 1
[web:03901] Read -1, expected 4136, errno = 1
[web:03899] Read -1, expected 4136, errno = 1
[web:03900] Read -1, expected 4136, errno = 1
[web:03901] Read -1, expected 4136, errno = 1
[web:03900] Read -1, expected 4136, errno = 1
[web:03899] Read -1, expected 4136, errno = 1
[web:03901] Read -1, expected 4136, errno = 1
[web:03899] Read -1, expected 4136, errno = 1
[web:03900] Read -1, expected 4136, errno = 1
[web:03901] Read -1, expected 4136, errno = 1
[web:03899] Read -1, expected 6728, errno = 1
[web:03898] Read -1, expected 6728, errno = 1
[web:03900] Read -1, expected 6728, errno = 1
[web:03900] Read -1, expected 6728, errno = 1
[web:03901] Read -1, expected 6728, errno = 1
[web:03901] Read -1, expected 6728, errno = 1
[web:03898] Read -1, expected 6728, errno = 1
[web:03899] Read -1, expected 6728, errno = 1
[web:03900] Read -1, expected 4136, errno = 1
[web:03899] Read -1, expected 4136, errno = 1
[web:03901] Read -1, expected 4136, errno = 1
[web:03899] Read -1, expected 4136, errno = 1
[web:03900] Read -1, expected 4136, errno = 1
[web:03901] Read -1, expected 4136, errno = 1
[web:03900] Read -1, expected 4136, errno = 1
[web:03899] Read -1, expected 4136, errno = 1
[web:03901] Read -1, expected 4136, errno = 1
[web:03899] Read -1, expected 4136, errno = 1
[web:03900] Read -1, expected 4136, errno = 1
[web:03901] Read -1, expected 4136, errno = 1
[web:03899] Read -1, expected 4136, errno = 1
[web:03900] Read -1, expected 4136, errno = 1
[web:03901] Read -1, expected 4136, errno = 1
[web:03899] Read -1, expected 4136, errno = 1
[web:03900] Read -1, expected 4136, errno = 1
[web:03901] Read -1, expected 4136, errno = 1
[web:03900] Read -1, expected 6728, errno = 1
[web:03900] Read -1, expected 6728, errno = 1
[web:03898] Read -1, expected 6728, errno = 1
[web:03898] Read -1, expected 6728, errno = 1
[web:03899] Read -1, expected 6728, errno = 1
[web:03899] Read -1, expected 6728, errno = 1
[web:03901] Read -1, expected 6728, errno = 1
[web:03901] Read -1, expected 6728, errno = 1
[web:03899] Read -1, expected 4136, errno = 1
[web:03900] Read -1, expected 4136, errno = 1
[web:03901] Read -1, expected 4136, errno = 1
[web:03900] Read -1, expected 4136, errno = 1
[web:03899] Read -1, expected 4136, errno = 1
[web:03901] Read -1, expected 4136, errno = 1
[web:03899] Read -1, expected 4136, errno = 1
[web:03900] Read -1, expected 4136, errno = 1
[web:03901] Read -1, expected 4136, errno = 1
[web:03900] Read -1, expected 4136, errno = 1
[web:03899] Read -1, expected 4136, errno = 1
[web:03901] Read -1, expected 4136, errno = 1
[web:03899] Read -1, expected 4136, errno = 1
[web:03900] Read -1, expected 4136, errno = 1
[web:03901] Read -1, expected 4136, errno = 1
[web:03900] Read -1, expected 4136, errno = 1
[web:03899] Read -1, expected 4136, errno = 1
[web:03901] Read -1, expected 4136, errno = 1
[web:03899] Read -1, expected 4136, errno = 1
[web:03900] Read -1, expected 4136, errno = 1
[web:03901] Read -1, expected 4136, errno = 1
[web:03900] Read -1, expected 4136, errno = 1
[web:03899] Read -1, expected 4136, errno = 1
[web:03901] Read -1, expected 4136, errno = 1
[web:03900] Read -1, expected 6728, errno = 1
[web:03899] Read -1, expected 6728, errno = 1
[web:03901] Read -1, expected 6728, errno = 1
[web:03900] Read -1, expected 4136, errno = 1
[web:03899] Read -1, expected 4136, errno = 1
[web:03901] Read -1, expected 4136, errno = 1
[web:03900] Read -1, expected 4136, errno = 1
[web:03899] Read -1, expected 4136, errno = 1
[web:03901] Read -1, expected 4136, errno = 1
  4    -56.4638517196  -0.007503633847 0.00685458  0.00051128  0.0124772 0.0000
[web:03900] Read -1, expected 4136, errno = 1
[web:03899] Read -1, expected 4136, errno = 1
[web:03901] Read -1, expected 4136, errno = 1
[web:03899] Read -1, expected 4136, errno = 1
[web:03900] Read -1, expected 4136, errno = 1
[web:03901] Read -1, expected 4136, errno = 1
[web:03900] Read -1, expected 4136, errno = 1
[web:03899] Read -1, expected 4136, errno = 1
[web:03901] Read -1, expected 4136, errno = 1
[web:03899] Read -1, expected 4136, errno = 1
[web:03900] Read -1, expected 4136, errno = 1
[web:03901] Read -1, expected 4136, errno = 1
[web:03899] Read -1, expected 4136, errno = 1
[web:03900] Read -1, expected 4136, errno = 1
[web:03901] Read -1, expected 4136, errno = 1
[web:03899] Read -1, expected 6728, errno = 1
[web:03898] Read -1, expected 6728, errno = 1
[web:03900] Read -1, expected 6728, errno = 1
[web:03900] Read -1, expected 6728, errno = 1
[web:03901] Read -1, expected 6728, errno = 1
[web:03901] Read -1, expected 6728, errno = 1
[web:03898] Read -1, expected 6728, errno = 1
[web:03899] Read -1, expected 6728, errno = 1
[web:03899] Read -1, expected 4136, errno = 1
[web:03900] Read -1, expected 4136, errno = 1
[web:03901] Read -1, expected 4136, errno = 1
[web:03899] Read -1, expected 4136, errno = 1
[web:03900] Read -1, expected 4136, errno = 1
[web:03901] Read -1, expected 4136, errno = 1
[web:03900] Read -1, expected 4136, errno = 1
[web:03899] Read -1, expected 4136, errno = 1
[web:03901] Read -1, expected 4136, errno = 1
[web:03901] Read -1, expected 4136, errno = 1
[web:03899] Read -1, expected 4136, errno = 1
[web:03900] Read -1, expected 4136, errno = 1
[web:03901] Read -1, expected 4136, errno = 1
[web:03899] Read -1, expected 4136, errno = 1
[web:03900] Read -1, expected 4136, errno = 1
[web:03900] Read -1, expected 4136, errno = 1
[web:03899] Read -1, expected 4136, errno = 1
[web:03901] Read -1, expected 4136, errno = 1
[web:03898] Read -1, expected 6728, errno = 1
[web:03901] Read -1, expected 6728, errno = 1
[web:03900] Read -1, expected 6728, errno = 1
[web:03899] Read -1, expected 6728, errno = 1
[web:03899] Read -1, expected 6728, errno = 1
[web:03901] Read -1, expected 6728, errno = 1
[web:03898] Read -1, expected 6728, errno = 1
[web:03900] Read -1, expected 6728, errno = 1
[web:03900] Read -1, expected 4136, errno = 1
[web:03899] Read -1, expected 4136, errno = 1
[web:03901] Read -1, expected 4136, errno = 1
[web:03900] Read -1, expected 4136, errno = 1
[web:03899] Read -1, expected 4136, errno = 1
[web:03901] Read -1, expected 4136, errno = 1
[web:03899] Read -1, expected 4136, errno = 1
[web:03900] Read -1, expected 4136, errno = 1
[web:03901] Read -1, expected 4136, errno = 1
[web:03900] Read -1, expected 4136, errno = 1
[web:03899] Read -1, expected 4136, errno = 1
[web:03901] Read -1, expected 4136, errno = 1
[web:03900] Read -1, expected 4136, errno = 1
[web:03899] Read -1, expected 4136, errno = 1
[web:03901] Read -1, expected 4136, errno = 1
[web:03899] Read -1, expected 4136, errno = 1
[web:03900] Read -1, expected 4136, errno = 1
[web:03901] Read -1, expected 4136, errno = 1
[web:03899] Read -1, expected 4136, errno = 1
[web:03900] Read -1, expected 4136, errno = 1
[web:03901] Read -1, expected 4136, errno = 1
[web:03900] Read -1, expected 4136, errno = 1
[web:03899] Read -1, expected 4136, errno = 1
[web:03901] Read -1, expected 4136, errno = 1
[web:03899] Read -1, expected 6728, errno = 1
[web:03900] Read -1, expected 6728, errno = 1
[web:03901] Read -1, expected 6728, errno = 1
[web:03900] Read -1, expected 4136, errno = 1
[web:03899] Read -1, expected 4136, errno = 1
[web:03901] Read -1, expected 4136, errno = 1
[web:03899] Read -1, expected 4136, errno = 1
[web:03900] Read -1, expected 4136, errno = 1
[web:03901] Read -1, expected 4136, errno = 1
                      *** Initiating the SOSCF procedure ***
                           *** Shutting down DIIS ***
                      *** Re-Reading the Fockian *** 
                      *** Removing any level shift *** 
ITER      Energy       Delta-E        Grad      Rot      Max-DP    RMS-DP
  5    -56.46401918  -0.0001674614  0.000766  0.000766  0.001201  0.000114
               *** Restarting incremental Fock matrix formation ***
[web:03900] Read -1, expected 4136, errno = 1
[web:03899] Read -1, expected 4136, errno = 1
[web:03901] Read -1, expected 4136, errno = 1
[web:03900] Read -1, expected 4136, errno = 1
[web:03901] Read -1, expected 4136, errno = 1
[web:03899] Read -1, expected 4136, errno = 1
[web:03900] Read -1, expected 4136, errno = 1
[web:03899] Read -1, expected 4136, errno = 1
[web:03901] Read -1, expected 4136, errno = 1
[web:03900] Read -1, expected 6728, errno = 1
[web:03901] Read -1, expected 6728, errno = 1
[web:03899] Read -1, expected 6728, errno = 1
[web:03898] Read -1, expected 6728, errno = 1
[web:03899] Read -1, expected 6728, errno = 1
[web:03898] Read -1, expected 6728, errno = 1
[web:03900] Read -1, expected 6728, errno = 1
[web:03901] Read -1, expected 6728, errno = 1
[web:03900] Read -1, expected 4136, errno = 1
[web:03899] Read -1, expected 4136, errno = 1
[web:03901] Read -1, expected 4136, errno = 1
[web:03899] Read -1, expected 4136, errno = 1
[web:03900] Read -1, expected 4136, errno = 1
[web:03901] Read -1, expected 4136, errno = 1
[web:03901] Read -1, expected 4136, errno = 1
[web:03900] Read -1, expected 4136, errno = 1
[web:03899] Read -1, expected 4136, errno = 1
[web:03900] Read -1, expected 4136, errno = 1
[web:03899] Read -1, expected 4136, errno = 1
[web:03901] Read -1, expected 4136, errno = 1
[web:03899] Read -1, expected 4136, errno = 1
[web:03900] Read -1, expected 4136, errno = 1
[web:03901] Read -1, expected 4136, errno = 1
  6    -56.46394262   0.0000765651  0.000366  0.000330  0.000671  0.000059
[web:03900] Read -1, expected 4136, errno = 1
[web:03899] Read -1, expected 4136, errno = 1
[web:03901] Read -1, expected 4136, errno = 1
[web:03899] Read -1, expected 4136, errno = 1
[web:03900] Read -1, expected 4136, errno = 1
[web:03901] Read -1, expected 4136, errno = 1
[web:03900] Read -1, expected 4136, errno = 1
[web:03899] Read -1, expected 4136, errno = 1
[web:03901] Read -1, expected 4136, errno = 1
[web:03899] Read -1, expected 4136, errno = 1
[web:03900] Read -1, expected 4136, errno = 1
[web:03901] Read -1, expected 4136, errno = 1
[web:03899] Read -1, expected 4136, errno = 1
[web:03901] Read -1, expected 4136, errno = 1
[web:03900] Read -1, expected 4136, errno = 1
[web:03901] Read -1, expected 6728, errno = 1
[web:03900] Read -1, expected 6728, errno = 1
[web:03899] Read -1, expected 6728, errno = 1
[web:03899] Read -1, expected 6728, errno = 1
[web:03898] Read -1, expected 6728, errno = 1
[web:03898] Read -1, expected 6728, errno = 1
[web:03900] Read -1, expected 6728, errno = 1
[web:03901] Read -1, expected 6728, errno = 1
[web:03899] Read -1, expected 4136, errno = 1
[web:03901] Read -1, expected 4136, errno = 1
[web:03900] Read -1, expected 4136, errno = 1
[web:03899] Read -1, expected 4136, errno = 1
[web:03900] Read -1, expected 4136, errno = 1
[web:03901] Read -1, expected 4136, errno = 1
[web:03899] Read -1, expected 4136, errno = 1
[web:03901] Read -1, expected 4136, errno = 1
[web:03900] Read -1, expected 4136, errno = 1
[web:03901] Read -1, expected 4136, errno = 1
[web:03899] Read -1, expected 4136, errno = 1
[web:03900] Read -1, expected 4136, errno = 1
[web:03899] Read -1, expected 4136, errno = 1
[web:03901] Read -1, expected 4136, errno = 1
[web:03900] Read -1, expected 4136, errno = 1
[web:03899] Read -1, expected 4136, errno = 1
[web:03900] Read -1, expected 4136, errno = 1
[web:03901] Read -1, expected 4136, errno = 1
  7    -56.46394291  -0.0000002958  0.000226  0.000095  0.000285  0.000020
[web:03900] Read -1, expected 4136, errno = 1
[web:03899] Read -1, expected 4136, errno = 1
[web:03901] Read -1, expected 4136, errno = 1
[web:03900] Read -1, expected 4136, errno = 1
[web:03899] Read -1, expected 4136, errno = 1
[web:03901] Read -1, expected 4136, errno = 1
[web:03900] Read -1, expected 4136, errno = 1
[web:03899] Read -1, expected 4136, errno = 1
[web:03901] Read -1, expected 4136, errno = 1
[web:03899] Read -1, expected 4136, errno = 1
[web:03900] Read -1, expected 4136, errno = 1
[web:03901] Read -1, expected 4136, errno = 1
[web:03900] Read -1, expected 4136, errno = 1
[web:03899] Read -1, expected 4136, errno = 1
[web:03901] Read -1, expected 4136, errno = 1
[web:03900] Read -1, expected 6728, errno = 1
[web:03901] Read -1, expected 6728, errno = 1
[web:03899] Read -1, expected 6728, errno = 1
[web:03899] Read -1, expected 6728, errno = 1
[web:03898] Read -1, expected 6728, errno = 1
[web:03898] Read -1, expected 6728, errno = 1
[web:03901] Read -1, expected 6728, errno = 1
[web:03900] Read -1, expected 6728, errno = 1
[web:03899] Read -1, expected 4136, errno = 1
[web:03901] Read -1, expected 4136, errno = 1
[web:03900] Read -1, expected 4136, errno = 1
[web:03901] Read -1, expected 4136, errno = 1
[web:03899] Read -1, expected 4136, errno = 1
[web:03900] Read -1, expected 4136, errno = 1
[web:03901] Read -1, expected 4136, errno = 1
[web:03900] Read -1, expected 4136, errno = 1
[web:03899] Read -1, expected 4136, errno = 1
[web:03901] Read -1, expected 4136, errno = 1
[web:03899] Read -1, expected 4136, errno = 1
[web:03900] Read -1, expected 4136, errno = 1
[web:03899] Read -1, expected 4136, errno = 1
[web:03901] Read -1, expected 4136, errno = 1
[web:03900] Read -1, expected 4136, errno = 1
[web:03899] Read -1, expected 4136, errno = 1
[web:03900] Read -1, expected 4136, errno = 1
[web:03901] Read -1, expected 4136, errno = 1
  8    -56.46394309  -0.0000001749  0.000008  0.000008  0.000015  0.000002
[web:03899] Read -1, expected 4136, errno = 1
[web:03900] Read -1, expected 4136, errno = 1
[web:03901] Read -1, expected 4136, errno = 1
[web:03901] Read -1, expected 4136, errno = 1
[web:03900] Read -1, expected 4136, errno = 1
[web:03899] Read -1, expected 4136, errno = 1
[web:03900] Read -1, expected 4136, errno = 1
[web:03899] Read -1, expected 4136, errno = 1
[web:03901] Read -1, expected 4136, errno = 1
[web:03899] Read -1, expected 4136, errno = 1
[web:03900] Read -1, expected 4136, errno = 1
[web:03901] Read -1, expected 4136, errno = 1
[web:03900] Read -1, expected 4136, errno = 1
[web:03899] Read -1, expected 4136, errno = 1
[web:03901] Read -1, expected 4136, errno = 1
[web:03900] Read -1, expected 6728, errno = 1
[web:03901] Read -1, expected 6728, errno = 1
[web:03899] Read -1, expected 6728, errno = 1
[web:03899] Read -1, expected 6728, errno = 1
[web:03898] Read -1, expected 6728, errno = 1
[web:03898] Read -1, expected 6728, errno = 1
[web:03900] Read -1, expected 6728, errno = 1
[web:03901] Read -1, expected 6728, errno = 1
[web:03900] Read -1, expected 4136, errno = 1
[web:03901] Read -1, expected 4136, errno = 1
[web:03899] Read -1, expected 4136, errno = 1
[web:03901] Read -1, expected 4136, errno = 1
[web:03900] Read -1, expected 4136, errno = 1
[web:03899] Read -1, expected 4136, errno = 1
[web:03899] Read -1, expected 4136, errno = 1
[web:03900] Read -1, expected 4136, errno = 1
[web:03901] Read -1, expected 4136, errno = 1
[web:03899] Read -1, expected 4136, errno = 1
[web:03900] Read -1, expected 4136, errno = 1
[web:03901] Read -1, expected 4136, errno = 1
[web:03901] Read -1, expected 4136, errno = 1
[web:03900] Read -1, expected 4136, errno = 1
[web:03899] Read -1, expected 4136, errno = 1
[web:03899] Read -1, expected 4136, errno = 1
[web:03901] Read -1, expected 4136, errno = 1
[web:03900] Read -1, expected 4136, errno = 1
                 **** Energy Check signals convergence ****
              ***Rediagonalizing the Fockian in SOSCF/NRSCF***
[web:03899] Read -1, expected 4136, errno = 1
[web:03900] Read -1, expected 4136, errno = 1
[web:03901] Read -1, expected 4136, errno = 1
[web:03900] Read -1, expected 4136, errno = 1
[web:03899] Read -1, expected 4136, errno = 1
[web:03901] Read -1, expected 4136, errno = 1
[web:03899] Read -1, expected 4136, errno = 1
[web:03900] Read -1, expected 4136, errno = 1
[web:03901] Read -1, expected 4136, errno = 1
[web:03900] Read -1, expected 4136, errno = 1
[web:03899] Read -1, expected 4136, errno = 1
[web:03901] Read -1, expected 4136, errno = 1
[web:03899] Read -1, expected 4136, errno = 1
[web:03900] Read -1, expected 4136, errno = 1
[web:03901] Read -1, expected 4136, errno = 1
[web:03900] Read -1, expected 4136, errno = 1
[web:03899] Read -1, expected 4136, errno = 1
[web:03901] Read -1, expected 4136, errno = 1
[web:03900] Read -1, expected 4136, errno = 1
[web:03899] Read -1, expected 4136, errno = 1
[web:03901] Read -1, expected 4136, errno = 1
[web:03900] Read -1, expected 4136, errno = 1
[web:03899] Read -1, expected 4136, errno = 1
[web:03901] Read -1, expected 4136, errno = 1
[web:03899] Read -1, expected 4136, errno = 1
[web:03900] Read -1, expected 4136, errno = 1
[web:03901] Read -1, expected 4136, errno = 1
[web:03900] Read -1, expected 4136, errno = 1
[web:03899] Read -1, expected 4136, errno = 1
[web:03901] Read -1, expected 4136, errno = 1
[web:03900] Read -1, expected 4136, errno = 1
[web:03899] Read -1, expected 4136, errno = 1
[web:03901] Read -1, expected 4136, errno = 1

               *****************************************************
               *                     SUCCESS                       *
               *           SCF CONVERGED AFTER   9 CYCLES          *
               *****************************************************

[web:03900] Read -1, expected 6728, errno = 1
[web:03901] Read -1, expected 6728, errno = 1
[web:03901] Read -1, expected 6728, errno = 1
[web:03900] Read -1, expected 6728, errno = 1
[web:03898] Read -1, expected 6728, errno = 1
[web:03898] Read -1, expected 6728, errno = 1
[web:03899] Read -1, expected 6728, errno = 1
[web:03899] Read -1, expected 6728, errno = 1
[web:03899] Read -1, expected 4136, errno = 1
[web:03901] Read -1, expected 4136, errno = 1
[web:03900] Read -1, expected 4136, errno = 1
[web:03899] Read -1, expected 4136, errno = 1
[web:03901] Read -1, expected 4136, errno = 1
[web:03900] Read -1, expected 4136, errno = 1
[web:03901] Read -1, expected 4136, errno = 1
[web:03899] Read -1, expected 4136, errno = 1
[web:03900] Read -1, expected 4136, errno = 1
[web:03899] Read -1, expected 4136, errno = 1
[web:03901] Read -1, expected 4136, errno = 1
[web:03900] Read -1, expected 4136, errno = 1
[web:03900] Read -1, expected 4136, errno = 1
[web:03901] Read -1, expected 4136, errno = 1
[web:03899] Read -1, expected 4136, errno = 1
[web:03900] Read -1, expected 4136, errno = 1
[web:03901] Read -1, expected 4136, errno = 1
[web:03899] Read -1, expected 4136, errno = 1
[web:03900] Read -1, expected 4136, errno = 1
[web:03899] Read -1, expected 4136, errno = 1
[web:03901] Read -1, expected 4136, errno = 1
[web:03899] Read -1, expected 4136, errno = 1
[web:03900] Read -1, expected 4136, errno = 1
[web:03901] Read -1, expected 4136, errno = 1
Old exchange energy                            =     -4.154433623 Eh
New exchange energy                            =     -4.154346464 Eh
Exchange energy change after final integration =      0.000087158 Eh
Total energy after final integration           =    -56.463855931 Eh
Final COS-X integration done in                =     0.023 sec

----------------
TOTAL SCF ENERGY
----------------

Total Energy       :          -56.46385593 Eh           -1536.45963 eV

Components:
Nuclear Repulsion  :           12.11731123 Eh             329.72880 eV
Electronic Energy  :          -68.58116716 Eh           -1866.18843 eV
One Electron Energy:         -100.04087797 Eh           -2722.25069 eV
Two Electron Energy:           31.45971081 Eh             856.06225 eV
Max COSX asymmetry :            0.00000408 Eh               0.00011 eV

Virial components:
Potential Energy   :         -112.38616257 Eh           -3058.18296 eV
Kinetic Energy     :           55.92230664 Eh            1521.72333 eV
Virial Ratio       :            2.00968396


DFT components:
N(Alpha)           :        4.999999686350 electrons
N(Beta)            :        4.999999686350 electrons
N(Total)           :        9.999999372700 electrons
E(XC)              :       -3.865239959784 Eh       
DFET-embed. en.    :        0.000000000000 Eh       

---------------
SCF CONVERGENCE
---------------

  Last Energy change         ...   -2.0860e-09  Tolerance :   1.0000e-08
  Last MAX-Density change    ...    2.2204e-15  Tolerance :   1.0000e-07
  Last RMS-Density change    ...    8.0492e-17  Tolerance :   5.0000e-09
  Last Orbital Gradient      ...    1.8942e-06  Tolerance :   1.0000e-05
  Last Orbital Rotation      ...    4.5796e-06  Tolerance :   1.0000e-05

[web:03900] Read -1, expected 4136, errno = 1
[web:03899] Read -1, expected 4136, errno = 1
[web:03901] Read -1, expected 4136, errno = 1
[web:03899] Read -1, expected 4136, errno = 1
[web:03900] Read -1, expected 4136, errno = 1
[web:03901] Read -1, expected 4136, errno = 1
             **** THE GBW FILE WAS UPDATED (calc.gbw) ****
             **** DENSITY calc.scfp WAS UPDATED ****
             **** ENERGY FILE WAS UPDATED (calc.en.tmp) ****
             **** THE GBW FILE WAS UPDATED (calc.gbw) ****
             **** DENSITY calc.scfp WAS UPDATED ****
----------------
ORBITAL ENERGIES
----------------

  NO   OCC          E(Eh)            E(eV) 
   0   2.0000     -14.704804      -400.1381 
   1   2.0000      -0.910128       -24.7658 
   2   2.0000      -0.535443       -14.5701 
   3   2.0000      -0.535440       -14.5701 
   4   2.0000      -0.286719        -7.8020 
   5   0.0000       0.107514         2.9256 
   6   0.0000       0.190046         5.1714 
   7   0.0000       0.190065         5.1719 
   8   0.0000       0.626864        17.0578 
   9   0.0000       0.626923        17.0594 
  10   0.0000       0.655266        17.8307 
  11   0.0000       0.821477        22.3535 
  12   0.0000       0.901019        24.5180 
  13   0.0000       0.901108        24.5204 
  14   0.0000       0.918123        24.9834 
  15   0.0000       1.348245        36.6876 
  16   0.0000       1.348347        36.6904 
  17   0.0000       1.596700        43.4484 
  18   0.0000       1.862524        50.6818 
  19   0.0000       1.862620        50.6845 
  20   0.0000       1.891947        51.4825 
  21   0.0000       2.197460        59.7959 
  22   0.0000       2.442655        66.4680 
  23   0.0000       2.442765        66.4710 
  24   0.0000       2.715260        73.8860 
  25   0.0000       2.715467        73.8916 
  26   0.0000       3.267393        88.9103 
  27   0.0000       3.329720        90.6063 
  28   0.0000       3.329930        90.6120 

                    ********************************
                    * MULLIKEN POPULATION ANALYSIS *
                    ********************************

-----------------------
MULLIKEN ATOMIC CHARGES
-----------------------
   0 N :   -0.371688
   1 H :    0.123940
   2 H :    0.123992
   3 H :    0.123756
Sum of atomic charges:   -0.0000000

--------------------------------
MULLIKEN REDUCED ORBITAL CHARGES
[...]
[web:04164] Read -1, expected 4136, errno = 1
[web:04163] Read -1, expected 4136, errno = 1
[web:04162] Read -1, expected 4136, errno = 1
[web:04164] Read -1, expected 4136, errno = 1
[web:04162] Read -1, expected 4136, errno = 1
[web:04163] Read -1, expected 4136, errno = 1
[web:04164] Read -1, expected 4136, errno = 1
[web:04163] Read -1, expected 4136, errno = 1
[web:04162] Read -1, expected 4136, errno = 1
[web:04164] Read -1, expected 4136, errno = 1
[web:04162] Read -1, expected 4136, errno = 1
[web:04163] Read -1, expected 4136, errno = 1
[web:04164] Read -1, expected 4136, errno = 1
[web:04163] Read -1, expected 4136, errno = 1
[web:04162] Read -1, expected 4136, errno = 1
[web:04164] Read -1, expected 4136, errno = 1
  2    -56.46423379  -0.0000000132  0.000019  0.000018  0.000031  0.000003
[web:04162] Read -1, expected 4136, errno = 1
[web:04163] Read -1, expected 4136, errno = 1
[web:04164] Read -1, expected 4136, errno = 1
[web:04162] Read -1, expected 4136, errno = 1
[web:04163] Read -1, expected 4136, errno = 1
[web:04164] Read -1, expected 4136, errno = 1
[web:04162] Read -1, expected 4136, errno = 1
[web:04163] Read -1, expected 4136, errno = 1
[web:04164] Read -1, expected 4136, errno = 1
[web:04162] Read -1, expected 4136, errno = 1
[web:04163] Read -1, expected 4136, errno = 1
[web:04164] Read -1, expected 4136, errno = 1
[web:04163] Read -1, expected 4136, errno = 1
[web:04162] Read -1, expected 4136, errno = 1
[web:04164] Read -1, expected 4136, errno = 1
[web:04164] Read -1, expected 6728, errno = 1
[web:04163] Read -1, expected 6728, errno = 1
[web:04164] Read -1, expected 6728, errno = 1
[web:04161] Read -1, expected 6728, errno = 1
[web:04161] Read -1, expected 6728, errno = 1
[web:04163] Read -1, expected 6728, errno = 1
[web:04162] Read -1, expected 6728, errno = 1
[web:04162] Read -1, expected 6728, errno = 1
[web:04164] Read -1, expected 4136, errno = 1
[web:04162] Read -1, expected 4136, errno = 1
[web:04163] Read -1, expected 4136, errno = 1
[web:04162] Read -1, expected 4136, errno = 1
[web:04164] Read -1, expected 4136, errno = 1
[web:04163] Read -1, expected 4136, errno = 1
[web:04162] Read -1, expected 4136, errno = 1
[web:04163] Read -1, expected 4136, errno = 1
[web:04164] Read -1, expected 4136, errno = 1
[web:04163] Read -1, expected 4136, errno = 1
[web:04162] Read -1, expected 4136, errno = 1
[web:04164] Read -1, expected 4136, errno = 1
[web:04162] Read -1, expected 4136, errno = 1
[web:04163] Read -1, expected 4136, errno = 1
[web:04164] Read -1, expected 4136, errno = 1
[web:04162] Read -1, expected 4136, errno = 1
[web:04163] Read -1, expected 4136, errno = 1
[web:04164] Read -1, expected 4136, errno = 1
  3    -56.46423379   0.0000000008  0.000003  0.000004  0.000005  0.000001
[web:04162] Read -1, expected 4136, errno = 1
[web:04163] Read -1, expected 4136, errno = 1
[web:04164] Read -1, expected 4136, errno = 1
[web:04163] Read -1, expected 4136, errno = 1
[web:04162] Read -1, expected 4136, errno = 1
[web:04164] Read -1, expected 4136, errno = 1
[web:04162] Read -1, expected 4136, errno = 1
[web:04163] Read -1, expected 4136, errno = 1
[web:04164] Read -1, expected 4136, errno = 1
[web:04163] Read -1, expected 4136, errno = 1
[web:04162] Read -1, expected 4136, errno = 1
[web:04164] Read -1, expected 4136, errno = 1
[web:04163] Read -1, expected 4136, errno = 1
[web:04162] Read -1, expected 4136, errno = 1
[web:04164] Read -1, expected 4136, errno = 1
[web:04164] Read -1, expected 6728, errno = 1
[web:04163] Read -1, expected 6728, errno = 1
[web:04161] Read -1, expected 6728, errno = 1
[web:04161] Read -1, expected 6728, errno = 1
[web:04162] Read -1, expected 6728, errno = 1
[web:04162] Read -1, expected 6728, errno = 1
[web:04164] Read -1, expected 6728, errno = 1
[web:04163] Read -1, expected 6728, errno = 1
[web:04164] Read -1, expected 4136, errno = 1
[web:04163] Read -1, expected 4136, errno = 1
[web:04162] Read -1, expected 4136, errno = 1
[web:04163] Read -1, expected 4136, errno = 1
[web:04164] Read -1, expected 4136, errno = 1
[web:04162] Read -1, expected 4136, errno = 1
[web:04162] Read -1, expected 4136, errno = 1
[web:04163] Read -1, expected 4136, errno = 1
[web:04164] Read -1, expected 4136, errno = 1
[web:04163] Read -1, expected 4136, errno = 1
[web:04162] Read -1, expected 4136, errno = 1
[web:04164] Read -1, expected 4136, errno = 1
[web:04162] Read -1, expected 4136, errno = 1
[web:04163] Read -1, expected 4136, errno = 1
[web:04164] Read -1, expected 4136, errno = 1
[web:04163] Read -1, expected 4136, errno = 1
[web:04162] Read -1, expected 4136, errno = 1
[web:04164] Read -1, expected 4136, errno = 1
                 **** Energy Check signals convergence ****
              ***Rediagonalizing the Fockian in SOSCF/NRSCF***
[web:04163] Read -1, expected 4136, errno = 1
[web:04162] Read -1, expected 4136, errno = 1
[web:04164] Read -1, expected 4136, errno = 1
[web:04163] Read -1, expected 4136, errno = 1
[web:04162] Read -1, expected 4136, errno = 1
[web:04164] Read -1, expected 4136, errno = 1
[web:04162] Read -1, expected 4136, errno = 1
[web:04163] Read -1, expected 4136, errno = 1
[web:04164] Read -1, expected 4136, errno = 1
[web:04163] Read -1, expected 4136, errno = 1
[web:04162] Read -1, expected 4136, errno = 1
[web:04164] Read -1, expected 4136, errno = 1
[web:04162] Read -1, expected 4136, errno = 1
[web:04163] Read -1, expected 4136, errno = 1
[web:04164] Read -1, expected 4136, errno = 1
[web:04163] Read -1, expected 4136, errno = 1
[web:04162] Read -1, expected 4136, errno = 1
[web:04164] Read -1, expected 4136, errno = 1
[web:04162] Read -1, expected 4136, errno = 1
[web:04163] Read -1, expected 4136, errno = 1
[web:04164] Read -1, expected 4136, errno = 1
[web:04163] Read -1, expected 4136, errno = 1
[web:04162] Read -1, expected 4136, errno = 1
[web:04164] Read -1, expected 4136, errno = 1
[web:04162] Read -1, expected 4136, errno = 1
[web:04163] Read -1, expected 4136, errno = 1
[web:04164] Read -1, expected 4136, errno = 1
[web:04163] Read -1, expected 4136, errno = 1
[web:04162] Read -1, expected 4136, errno = 1
[web:04164] Read -1, expected 4136, errno = 1
[web:04162] Read -1, expected 4136, errno = 1
[web:04163] Read -1, expected 4136, errno = 1
[web:04164] Read -1, expected 4136, errno = 1

               *****************************************************
               *                     SUCCESS                       *
               *           SCF CONVERGED AFTER   4 CYCLES          *
               *****************************************************

[web:04164] Read -1, expected 6728, errno = 1
[web:04163] Read -1, expected 6728, errno = 1
[web:04164] Read -1, expected 6728, errno = 1
[web:04162] Read -1, expected 6728, errno = 1
[web:04162] Read -1, expected 6728, errno = 1
[web:04161] Read -1, expected 6728, errno = 1
[web:04161] Read -1, expected 6728, errno = 1
[web:04163] Read -1, expected 6728, errno = 1
[web:04162] Read -1, expected 4136, errno = 1
[web:04163] Read -1, expected 4136, errno = 1
[web:04164] Read -1, expected 4136, errno = 1
[web:04163] Read -1, expected 4136, errno = 1
[web:04162] Read -1, expected 4136, errno = 1
[web:04164] Read -1, expected 4136, errno = 1
[web:04163] Read -1, expected 4136, errno = 1
[web:04162] Read -1, expected 4136, errno = 1
[web:04164] Read -1, expected 4136, errno = 1
[web:04163] Read -1, expected 4136, errno = 1
[web:04162] Read -1, expected 4136, errno = 1
[web:04164] Read -1, expected 4136, errno = 1
[web:04162] Read -1, expected 4136, errno = 1
[web:04163] Read -1, expected 4136, errno = 1
[web:04164] Read -1, expected 4136, errno = 1
[web:04162] Read -1, expected 4136, errno = 1
[web:04163] Read -1, expected 4136, errno = 1
[web:04164] Read -1, expected 4136, errno = 1
[web:04162] Read -1, expected 4136, errno = 1
[web:04163] Read -1, expected 4136, errno = 1
[web:04164] Read -1, expected 4136, errno = 1
[web:04163] Read -1, expected 4136, errno = 1
[web:04162] Read -1, expected 4136, errno = 1
[web:04164] Read -1, expected 4136, errno = 1
Old exchange energy                            =     -4.146676836 Eh
New exchange energy                            =     -4.146594806 Eh
Exchange energy change after final integration =      0.000082030 Eh
Total energy after final integration           =    -56.464151758 Eh
Final COS-X integration done in                =     0.023 sec

----------------
TOTAL SCF ENERGY
----------------

Total Energy       :          -56.46415176 Eh           -1536.46768 eV

Components:
Nuclear Repulsion  :           11.99185143 Eh             326.31487 eV
Electronic Energy  :          -68.45600319 Eh           -1862.78255 eV
One Electron Energy:          -99.81768059 Eh           -2716.17718 eV
Two Electron Energy:           31.36167740 Eh             853.39463 eV
Max COSX asymmetry :            0.00000417 Eh               0.00011 eV

Virial components:
Potential Energy   :         -112.33561526 Eh           -3056.80750 eV
Kinetic Energy     :           55.87146350 Eh            1520.33981 eV
Virial Ratio       :            2.01060807


DFT components:
N(Alpha)           :        4.999999814852 electrons
N(Beta)            :        4.999999814852 electrons
N(Total)           :        9.999999629704 electrons
E(XC)              :       -3.859309157067 Eh       
DFET-embed. en.    :        0.000000000000 Eh       

---------------
SCF CONVERGENCE
---------------

  Last Energy change         ...   -6.3749e-10  Tolerance :   1.0000e-08
  Last MAX-Density change    ...    1.7764e-15  Tolerance :   1.0000e-07
  Last RMS-Density change    ...    6.5322e-17  Tolerance :   5.0000e-09
  Last Orbital Gradient      ...    5.9229e-07  Tolerance :   1.0000e-05
  Last Orbital Rotation      ...    1.7649e-06  Tolerance :   1.0000e-05

[web:04162] Read -1, expected 4136, errno = 1
[web:04163] Read -1, expected 4136, errno = 1
[web:04164] Read -1, expected 4136, errno = 1
[web:04163] Read -1, expected 4136, errno = 1
[web:04162] Read -1, expected 4136, errno = 1
[web:04164] Read -1, expected 4136, errno = 1
             **** THE GBW FILE WAS UPDATED (calc.gbw) ****
             **** DENSITY calc.scfp WAS UPDATED ****
             **** ENERGY FILE WAS UPDATED (calc.en.tmp) ****
             **** THE GBW FILE WAS UPDATED (calc.gbw) ****
             **** DENSITY calc.scfp WAS UPDATED ****
----------------
ORBITAL ENERGIES
----------------

  NO   OCC          E(Eh)            E(eV) 
   0   2.0000     -14.707159      -400.2021 
   1   2.0000      -0.905548       -24.6412 
   2   2.0000      -0.531509       -14.4631 
   3   2.0000      -0.531434       -14.4611 
   4   2.0000      -0.285895        -7.7796 
   5   0.0000       0.105408         2.8683 
   6   0.0000       0.188751         5.1362 
   7   0.0000       0.188773         5.1368 
   8   0.0000       0.622656        16.9433 
   9   0.0000       0.622831        16.9481 
  10   0.0000       0.645700        17.5704 
  11   0.0000       0.821933        22.3659 
  12   0.0000       0.898287        24.4436 
  13   0.0000       0.898378        24.4461 
  14   0.0000       0.917200        24.9583 
  15   0.0000       1.346794        36.6481 
  16   0.0000       1.346959        36.6526 
  17   0.0000       1.587668        43.2026 
  18   0.0000       1.852547        50.4104 
  19   0.0000       1.852711        50.4148 
  20   0.0000       1.882556        51.2269 
  21   0.0000       2.182694        59.3941 
  22   0.0000       2.418703        65.8163 
  23   0.0000       2.419002        65.8244 
  24   0.0000       2.704163        73.5840 
  25   0.0000       2.704288        73.5874 
  26   0.0000       3.244152        88.2779 
  27   0.0000       3.314708        90.1978 
  28   0.0000       3.315131        90.2093 

                    ********************************
                    * MULLIKEN POPULATION ANALYSIS *
                    ********************************

-----------------------
MULLIKEN ATOMIC CHARGES
-----------------------
   0 N :   -0.387093
   1 H :    0.129081
   2 H :    0.129125
   3 H :    0.128886
Sum of atomic charges:    0.0000000

--------------------------------
MULLIKEN REDUCED ORBITAL CHARGES
--------------------------------
  0 N s       :     3.309975  s :     3.309975
      pz      :     1.061551  p :     4.068015
      px      :     1.197279
      py      :     1.809185
      dz2     :     0.003119  d :     0.009103
      dxz     :     0.002996
      dyz     :     0.000605
      dx2y2   :     0.001120
      dxy     :     0.001263
  1 H s       :     0.825392  s :     0.825392
      pz      :     0.008075  p :     0.045527
      px      :     0.021222
      py      :     0.016231
  2 H s       :     0.825336  s :     0.825336
      pz      :     0.018584  p :     0.045539
      px      :     0.012685
      py      :     0.014270
  3 H s       :     0.825597  s :     0.825597
      pz      :     0.018986  p :     0.045517
      px      :     0.011681
      py      :     0.014850

[web:04162] Read -1, expected 4136, errno = 1
[web:04163] Read -1, expected 4136, errno = 1
[web:04164] Read -1, expected 4136, errno = 1
[web:04163] Read -1, expected 4136, errno = 1
[web:04162] Read -1, expected 4136, errno = 1
[web:04164] Read -1, expected 4136, errno = 1

                     *******************************
                     * LOEWDIN POPULATION ANALYSIS *
                     *******************************

----------------------
LOEWDIN ATOMIC CHARGES
----------------------
   0 N :   -0.164844
   1 H :    0.054945
   2 H :    0.054993
   3 H :    0.054905

-------------------------------
LOEWDIN REDUCED ORBITAL CHARGES
-------------------------------
  0 N s       :     3.013700  s :     3.013700
      pz      :     1.142022  p :     4.125774
      px      :     1.249594
      py      :     1.734158
      dz2     :     0.009145  d :     0.025370
      dxz     :     0.009788
      dyz     :     0.001914
      dx2y2   :     0.002129
      dxy     :     0.002393
  1 H s       :     0.816289  s :     0.816289
      pz      :     0.015822  p :     0.128766
      px      :     0.060848
      py      :     0.052096
  2 H s       :     0.816270  s :     0.816270
      pz      :     0.050403  p :     0.128736
      px      :     0.032707
      py      :     0.045626
  3 H s       :     0.816358  s :     0.816358
      pz      :     0.051729  p :     0.128737
      px      :     0.029409
      py      :     0.047599

[web:04164] Read -1, expected 6728, errno = 1
[web:04163] Read -1, expected 6728, errno = 1
[web:04161] Read -1, expected 6728, errno = 1
[web:04162] Read -1, expected 6728, errno = 1
[web:04163] Read -1, expected 6728, errno = 1
[web:04162] Read -1, expected 6728, errno = 1
[web:04161] Read -1, expected 6728, errno = 1
[web:04164] Read -1, expected 6728, errno = 1
[web:04163] Read -1, expected 4136, errno = 1
[web:04162] Read -1, expected 4136, errno = 1
[web:04164] Read -1, expected 4136, errno = 1
[web:04163] Read -1, expected 4136, errno = 1
[web:04162] Read -1, expected 4136, errno = 1
[web:04164] Read -1, expected 4136, errno = 1

                      *****************************
                      * MAYER POPULATION ANALYSIS *
                      *****************************

  NA   - Mulliken gross atomic population
  ZA   - Total nuclear charge
  QA   - Mulliken gross atomic charge
  VA   - Mayer's total valence
  BVA  - Mayer's bonded valence
  FA   - Mayer's free valence

  ATOM       NA         ZA         QA         VA         BVA        FA
  0 N      7.3871     7.0000    -0.3871     2.9825     2.9825     0.0000
  1 H      0.8709     1.0000     0.1291     0.9964     0.9964    -0.0000
  2 H      0.8709     1.0000     0.1291     0.9964     0.9964    -0.0000
  3 H      0.8711     1.0000     0.1289     0.9965     0.9965    -0.0000

  Mayer bond orders larger than 0.100000
B(  0-N ,  1-H ) :   0.9941 B(  0-N ,  2-H ) :   0.9942 B(  0-N ,  3-H ) :   0.9942 


-------
TIMINGS
-------

Total SCF time: 0 days 0 hours 0 min 0 sec 

Total time                  ....       0.347 sec
Sum of individual times     ....       0.294 sec  ( 84.7%)

Fock matrix formation       ....       0.216 sec  ( 62.2%)
  Split-RI-J                ....       0.066 sec  ( 30.7% of F)
  Chain of spheres X        ....       0.100 sec  ( 46.6% of F)
  XC integration            ....       0.049 sec  ( 22.9% of F)
    Basis function eval.    ....       0.009 sec  ( 18.3% of XC)
    Density eval.           ....       0.011 sec  ( 21.9% of XC)
    XC-Functional eval.     ....       0.014 sec  ( 27.9% of XC)
    XC-Potential eval.      ....       0.010 sec  ( 20.6% of XC)
Diagonalization             ....       0.001 sec  (  0.1%)
Density matrix formation    ....       0.000 sec  (  0.0%)
Population analysis         ....       0.001 sec  (  0.4%)
Initial guess               ....       0.001 sec  (  0.3%)
Orbital Transformation      ....       0.000 sec  (  0.0%)
Orbital Orthonormalization  ....       0.000 sec  (  0.0%)
DIIS solution               ....       0.001 sec  (  0.2%)
SOSCF solution              ....       0.002 sec  (  0.6%)
Grid generation             ....       0.072 sec  ( 20.9%)

Maximum memory used throughout the entire SCF-calculation: 43.2 MB

-------------------------   --------------------
FINAL SINGLE POINT ENERGY       -56.464151758249
-------------------------   --------------------

                                *** OPTIMIZATION RUN DONE ***

                            ***************************************
                            *     ORCA property calculations      *
                            ***************************************

                                    ---------------------
                                    Active property flags
                                    ---------------------
   (+) Dipole Moment


------------------------------------------------------------------------------
                       ORCA ELECTRIC PROPERTIES CALCULATION
------------------------------------------------------------------------------

Dipole Moment Calculation                       ... on
Quadrupole Moment Calculation                   ... off
Polarizability Calculation                      ... off
GBWName                                         ... calc.gbw
Electron density                                ... calc.scfp
The origin for moment calculation is the CENTER OF MASS  = ( 2.055300, -0.642067 -0.018442)

-------------
DIPOLE MOMENT
-------------
                                X             Y             Z
Electronic contribution:      0.00015       0.00004      -0.00002
Nuclear contribution   :     -0.00004      -0.00076       0.00020
                        -----------------------------------------
Total Dipole Moment    :      0.00011      -0.00072       0.00018
                        -----------------------------------------
Magnitude (a.u.)       :      0.00075
Magnitude (Debye)      :      0.00190



--------------------
Rotational spectrum 
--------------------
 
Rotational constants in cm-1:    11.082386    11.077528     5.539979 
Rotational constants in MHz : 332241.582211 332095.936292 166084.396007 

 Dipole components along the rotational axes: 
x,y,z [a.u.] :    -0.000178     0.000141     0.000711 
x,y,z [Debye]:    -0.000453     0.000358     0.001807 

 
[web:04179] Read -1, expected 651728, errno = 1
[web:04180] Read -1, expected 651728, errno = 1
[web:04181] Read -1, expected 651728, errno = 1

Timings for individual modules:

Sum of individual times         ...        8.263 sec (=   0.138 min)
GTO integral calculation        ...        2.143 sec (=   0.036 min)  25.9 %
SCF iterations                  ...        3.937 sec (=   0.066 min)  47.6 %
SCF Gradient evaluation         ...        2.114 sec (=   0.035 min)  25.6 %
Geometry relaxation             ...        0.069 sec (=   0.001 min)   0.8 %
                             ****ORCA TERMINATED NORMALLY****
TOTAL RUN TIME: 0 days 0 hours 0 minutes 9 seconds 739 msec
