      -----------------------------------------------------------      
     |                   =====================                   |     
     |                           x T B                           |     
     |                   =====================                   |     
     |                         S. Grimme                         |     
     |          Mulliken Center for Theoretical Chemistry        |     
     |                    University of Bonn                     |     
      -----------------------------------------------------------      

   * xtb version 6.5.1 (579679a) compiled by 'ehlert@majestix' on 2022-07-11

   xtb is free software: you can redistribute it and/or modify it under
   the terms of the GNU Lesser General Public License as published by
   the Free Software Foundation, either version 3 of the License, or
   (at your option) any later version.
   
   xtb is distributed in the hope that it will be useful,
   but WITHOUT ANY WARRANTY; without even the implied warranty of
   MERCHANTABILITY or FITNESS FOR A PARTICULAR PURPOSE.  See the
   GNU Lesser General Public License for more details.
   
   Cite this work as:
   * C. Bannwarth, E. Caldeweyher, S. Ehlert, A. Hansen, P. Pracht,
     J. Seibert, S. Spicher, S. Grimme, WIREs Comput. Mol. Sci., 2020, 11,
     e01493. DOI: 10.1002/wcms.1493
   
   for GFN2-xTB:
   * C. Bannwarth, S. Ehlert and S. Grimme., J. Chem. Theory Comput., 2019,
     15, 1652-1671. DOI: 10.1021/acs.jctc.8b01176
   for GFN1-xTB:
   * S. Grimme, C. Bannwarth, P. Shushkov, J. Chem. Theory Comput., 2017,
     13, 1989-2009. DOI: 10.1021/acs.jctc.7b00118
   for GFN0-xTB:
   * P. Pracht, E. Caldeweyher, S. Ehlert, S. Grimme, ChemRxiv, 2019, preprint.
     DOI: 10.26434/chemrxiv.8326202.v1
   for GFN-FF:
   * S. Spicher and S. Grimme, Angew. Chem. Int. Ed., 2020, 59, 15665-15673.
     DOI: 10.1002/anie.202004239
   
   for ALPB and GBSA implicit solvation:
   * S. Ehlert, M. Stahn, S. Spicher, S. Grimme, J. Chem. Theory Comput.,
     2021, 17, 4250-4261. DOI: 10.1021/acs.jctc.1c00471
   
   for DFT-D4:
   * E. Caldeweyher, C. Bannwarth and S. Grimme, J. Chem. Phys., 2017,
     147, 034112. DOI: 10.1063/1.4993215
   * E. Caldeweyher, S. Ehlert, A. Hansen, H. Neugebauer, S. Spicher,
     C. Bannwarth and S. Grimme, J. Chem. Phys., 2019, 150, 154122.
     DOI: 10.1063/1.5090222
   * E. Caldeweyher, J.-M. Mewes, S. Ehlert and S. Grimme, Phys. Chem. Chem. Phys.
     2020, 22, 8499-8512. DOI: 10.1039/D0CP00502A
   
   for sTDA-xTB:
   * S. Grimme and C. Bannwarth, J. Chem. Phys., 2016, 145, 054103.
     DOI: 10.1063/1.4959605
   
   in the mass-spec context:
   * V. Asgeirsson, C. Bauer and S. Grimme, Chem. Sci., 2017, 8, 4879.
     DOI: 10.1039/c7sc00601b
   * J. Koopman and S. Grimme, ACS Omega 2019, 4, 12, 15120-15133.
     DOI: 10.1021/acsomega.9b02011
   
   for metadynamics refer to:
   * S. Grimme, J. Chem. Theory Comput., 2019, 155, 2847-2862
     DOI: 10.1021/acs.jctc.9b00143
   
   for SPH calculations refer to:
   * S. Spicher and S. Grimme, J. Chem. Theory Comput., 2021, 17, 1701-1714
     DOI: 10.1021/acs.jctc.0c01306
   
   with help from (in alphabetical order)
   P. Atkinson, C. Bannwarth, F. Bohle, G. Brandenburg, E. Caldeweyher
   M. Checinski, S. Dohm, S. Ehlert, S. Ehrlich, I. Gerasimov, C. Hölzer
   A. Katbashev, J. Koopman, C. Lavigne, S. Lehtola, F. März, M. Müller,
   F. Musil, H. Neugebauer, J. Pisarek, C. Plett, P. Pracht, F. Pultar,
   J. Seibert, P. Shushkov, S. Spicher, M. Stahn, M. Steiner, T. Strunk,
   J. Stückrath, T. Rose, and J. Unsleber
   
 * started run on 2022/09/05 at 11:11:01.524     

           -------------------------------------------------
          |                Calculation Setup                |
           -------------------------------------------------

          program call               : xtb in.xyz --opt tight --input input --chrg 1
          hostname                   : web
          coordinate file            : in.xyz
          omp threads                :                    16

   ID    Z sym.   atoms
    1    6 C      1-6, 13-16, 18, 20
    2    1 H      7-11, 17, 19, 21-23
    3   53 I      12
constraining angle 5 2 13 to   17.0316423°, actual value:   17.0316423°

           -------------------------------------------------
          |                 G F N 2 - x T B                 |
           -------------------------------------------------

        Reference                      10.1021/acs.jctc.8b01176
      * Hamiltonian:
        H0-scaling (s, p, d)           1.850000    2.230000    2.230000
        zeta-weighting                 0.500000
      * Dispersion:
        s8                             2.700000
        a1                             0.520000
        a2                             5.000000
        s9                             5.000000
      * Repulsion:
        kExp                           1.500000    1.000000
        rExp                           1.000000
      * Coulomb:
        alpha                          2.000000
        third order                    shell-resolved
        anisotropic                    true
        a3                             3.000000
        a5                             4.000000
        cn-shift                       1.200000
        cn-exp                         4.000000
        max-rad                        5.000000


          ...................................................
          :                      SETUP                      :
          :.................................................:
          :  # basis functions                  68          :
          :  # atomic orbitals                  67          :
          :  # shells                           37          :
          :  # electrons                        64          :
          :  max. iterations                   250          :
          :  Hamiltonian                  GFN2-xTB          :
          :  restarted?                      false          :
          :  GBSA solvation                  false          :
          :  PC potential                    false          :
          :  electronic temp.          300.0000000     K    :
          :  accuracy                    1.0000000          :
          :  -> integral cutoff          0.2500000E+02      :
          :  -> integral neglect         0.1000000E-07      :
          :  -> SCF convergence          0.1000000E-05 Eh   :
          :  -> wf. convergence          0.1000000E-03 e    :
          :  Broyden damping             0.4000000          :
          ...................................................

 iter      E             dE          RMSdq      gap      omega  full diag
   1    -34.5939529 -0.345940E+02  0.492E+00    3.40       0.0  T
   2    -34.6327271 -0.387742E-01  0.358E+00    3.38       1.0  T
   3    -34.6335453 -0.818200E-03  0.173E+00    3.59       1.0  T
   4    -34.6513903 -0.178450E-01  0.484E-01    3.35       1.0  T
   5    -34.6526438 -0.125348E-02  0.283E-01    3.47       1.0  T
   6    -34.6533474 -0.703641E-03  0.866E-02    3.46       1.0  T
   7    -34.6533675 -0.201145E-04  0.586E-02    3.45       1.0  T
   8    -34.6533798 -0.123237E-04  0.181E-02    3.45       1.2  T
   9    -34.6533797  0.163066E-06  0.933E-03    3.45       2.2  T
  10    -34.6533803 -0.573815E-06  0.215E-03    3.45       9.7  T
  11    -34.6533803 -0.323128E-07  0.112E-03    3.45      18.6  T
  12    -34.6533803 -0.107372E-08  0.135E-04    3.45     154.8  T
  13    -34.6533803 -0.198540E-09  0.425E-05    3.45     490.4  T

   *** convergence criteria satisfied after 13 iterations ***

         #    Occupation            Energy/Eh            Energy/eV
      -------------------------------------------------------------
         1        2.0000           -0.9291434             -25.2833
       ...           ...                  ...                  ...
        26        2.0000           -0.5799503             -15.7813
        27        2.0000           -0.5736164             -15.6089
        28        2.0000           -0.5719871             -15.5646
        29        2.0000           -0.5658822             -15.3984
        30        2.0000           -0.5629066             -15.3175
        31        2.0000           -0.5607414             -15.2586
        32        2.0000           -0.5606709             -15.2566 (HOMO)
        33                         -0.4337497             -11.8029 (LUMO)
        34                         -0.4127851             -11.2325
        35                         -0.3830048             -10.4221
        36                         -0.3825128             -10.4087
        37                         -0.3765481             -10.2464
       ...                                ...                  ...
        67                          0.4799310              13.0596
      -------------------------------------------------------------
                  HL-Gap            0.1269213 Eh            3.4537 eV
             Fermi-level           -0.4972103 Eh          -13.5298 eV

 SCC (total)                   0 d,  0 h,  0 min,  0.018 sec
 SCC setup                      ...        0 min,  0.000 sec (  0.823%)
 Dispersion                     ...        0 min,  0.000 sec (  1.124%)
 classical contributions        ...        0 min,  0.000 sec (  0.123%)
 integral evaluation            ...        0 min,  0.001 sec (  7.086%)
 iterations                     ...        0 min,  0.014 sec ( 78.794%)
 molecular gradient             ...        0 min,  0.002 sec ( 11.174%)
 printout                       ...        0 min,  0.000 sec (  0.737%)

         :::::::::::::::::::::::::::::::::::::::::::::::::::::
         ::                     SUMMARY                     ::
         :::::::::::::::::::::::::::::::::::::::::::::::::::::
         :: total energy             -34.089049808672 Eh    ::
         :: gradient norm              0.073416247259 Eh/a0 ::
         :: HOMO-LUMO gap              3.453703873128 eV    ::
         ::.................................................::
         :: SCC energy               -34.653380293668 Eh    ::
         :: -> isotropic ES            0.070196227552 Eh    ::
         :: -> anisotropic ES         -0.011221180587 Eh    ::
         :: -> anisotropic XC          0.025049535527 Eh    ::
         :: -> dispersion             -0.021824659651 Eh    ::
         :: repulsion energy           0.564291886840 Eh    ::
         :: add. restraining           0.000000000000 Eh    ::
         :: total charge               1.000000000000 e     ::
         :::::::::::::::::::::::::::::::::::::::::::::::::::::

      ----------------------------------------------------------- 
     |                   =====================                   |
     |                        A N C O P T                        |
     |                   =====================                   |
     |               Approximate Normal Coordinate               |
     |                Rational Function Optimizer                |
      ----------------------------------------------------------- 

          ...................................................
          :                      SETUP                      :
          :.................................................:
          :   optimization level             tight          :
          :   max. optcycles                   200          :
          :   ANC micro-cycles                  20          :
          :   degrees of freedom                63          :
          :.................................................:
          :   RF solver                   davidson          :
          :   write xtbopt.log                true          :
          :   linear?                        false          :
          :   energy convergence         0.1000000E-05 Eh   :
          :   grad. convergence          0.8000000E-03 Eh/α :
          :   maximium RF displ.         1.0000000          :
          :   Hlow (freq-cutoff)         0.1000000E-01      :
          :   Hmax (freq-cutoff)         5.0000000          :
          :   S6 in model hess.         20.0000000          :
          ...................................................

generating ANC from model Hessian ...
Using Lindh-Hessian (1995)
 Shifting diagonal of input Hessian by   9.640570904375719E-003
 Lowest  eigenvalues of input Hessian
    0.000000    0.000000    0.000000    0.000000    0.000000    0.000000
    0.010000    0.010008    0.010079    0.011840    0.012812    0.018416
    0.022099    0.022123    0.026645    0.027074    0.028353    0.030544
 Highest eigenvalues
    1.816393    1.816931    1.886648    1.887062    1.896002    1.896622
 

........................................................................
.............................. CYCLE    1 ..............................
........................................................................
   1    -34.6533803 -0.346534E+02  0.972E-06    3.45       0.0  T
   2    -34.6533803 -0.611067E-12  0.113E-05    3.45    1847.3  T
   3    -34.6533803 -0.859757E-12  0.630E-06    3.45    3312.1  T
     SCC iter.                  ...        0 min,  0.004 sec
     gradient                   ...        0 min,  0.002 sec
 * total energy  :   -34.0890498 Eh     change       -0.1520561E-11 Eh
   gradient norm :     0.0734162 Eh/α   predicted     0.0000000E+00 (-100.00%)
   displ. norm   :     0.3874337 α      lambda       -0.1738968E-01
   maximum displ.:     0.2446670 α      in ANC's #15, #4, #42, ...

........................................................................
.............................. CYCLE    2 ..............................
........................................................................
   1    -34.6874602 -0.346875E+02  0.586E-01    3.43       0.0  T
   2    -34.6875595 -0.992340E-04  0.383E-01    3.48       1.0  T
   3    -34.6875973 -0.378439E-04  0.149E-01    3.48       1.0  T
   4    -34.6876440 -0.466753E-04  0.952E-02    3.52       1.0  T
   5    -34.6876473 -0.330888E-05  0.385E-02    3.53       1.0  T
   6    -34.6876596 -0.123177E-04  0.161E-02    3.52       1.3  T
   7    -34.6876596 -0.662481E-08  0.688E-03    3.53       3.0  T
   8    -34.6876604 -0.793925E-06  0.164E-03    3.53      12.7  T
   9    -34.6876604 -0.205899E-07  0.486E-04    3.53      42.9  T
  10    -34.6876604 -0.406242E-08  0.208E-04    3.53     100.5  T
     SCC iter.                  ...        0 min,  0.010 sec
     gradient                   ...        0 min,  0.002 sec
 * total energy  :   -34.0970481 Eh     change       -0.7998312E-02 Eh
   gradient norm :     0.0306597 Eh/α   predicted    -0.1000081E-01 (  25.04%)
   displ. norm   :     0.1880203 α      lambda       -0.2973348E-02
   maximum displ.:     0.1089169 α      in ANC's #15, #2, #4, ...

........................................................................
.............................. CYCLE    3 ..............................
........................................................................
   1    -34.7109680 -0.347110E+02  0.219E-01    3.74       0.0  T
   2    -34.7110052 -0.371978E-04  0.165E-01    3.74       1.0  T
   3    -34.7110328 -0.276418E-04  0.945E-02    3.74       1.0  T
   4    -34.7110670 -0.341734E-04  0.319E-02    3.73       1.0  T
   5    -34.7110702 -0.322241E-05  0.234E-02    3.73       1.0  T
   6    -34.7110716 -0.135236E-05  0.581E-03    3.73       3.6  T
   7    -34.7110719 -0.324610E-06  0.291E-03    3.73       7.2  T
   8    -34.7110720 -0.387327E-07  0.149E-03    3.73      14.0  T
   9    -34.7110720 -0.508301E-08  0.493E-04    3.73      42.3  T
  10    -34.7110720 -0.143157E-08  0.676E-05    3.73     308.5  T
     SCC iter.                  ...        0 min,  0.010 sec
     gradient                   ...        0 min,  0.001 sec
 * total energy  :   -34.0986235 Eh     change       -0.1575353E-02 Eh
   gradient norm :     0.0117431 Eh/α   predicted    -0.1539475E-02 (  -2.28%)
   displ. norm   :     0.1921578 α      lambda       -0.5533311E-03
   maximum displ.:     0.1409923 α      in ANC's #2, #4, #15, ...

........................................................................
.............................. CYCLE    4 ..............................
........................................................................
   1    -34.7112317 -0.347112E+02  0.898E-02    3.71       0.0  T
   2    -34.7112356 -0.382758E-05  0.435E-02    3.70       1.0  T
   3    -34.7112343  0.122319E-05  0.175E-02    3.71       1.2  T
   4    -34.7112360 -0.166426E-05  0.703E-03    3.70       3.0  T
   5    -34.7112365 -0.520654E-06  0.279E-03    3.70       7.5  T
   6    -34.7112365 -0.520837E-08  0.677E-04    3.70      30.8  T
   7    -34.7112365 -0.660004E-08  0.381E-04    3.71      54.7  T
     SCC iter.                  ...        0 min,  0.005 sec
     gradient                   ...        0 min,  0.001 sec
 * total energy  :   -34.0990287 Eh     change       -0.4051888E-03 Eh
   gradient norm :     0.0031640 Eh/α   predicted    -0.2868938E-03 ( -29.20%)
   displ. norm   :     0.2208592 α      lambda       -0.3350947E-03
   maximum displ.:     0.1819549 α      in ANC's #2, #4, #9, ...

........................................................................
.............................. CYCLE    5 ..............................
........................................................................
   1    -34.7088225 -0.347088E+02  0.739E-02    3.67       0.0  T
   2    -34.7088265 -0.397379E-05  0.364E-02    3.66       1.0  T
   3    -34.7088264  0.439255E-07  0.208E-02    3.66       1.0  T
   4    -34.7088270 -0.619705E-06  0.687E-03    3.66       3.0  T
   5    -34.7088275 -0.448568E-06  0.389E-03    3.66       5.4  T
   6    -34.7088275 -0.671285E-07  0.167E-03    3.66      12.5  T
   7    -34.7088276 -0.555400E-08  0.108E-03    3.66      19.3  T
   8    -34.7088276 -0.398767E-08  0.206E-04    3.66     101.0  T
   9    -34.7088276 -0.209212E-09  0.781E-05    3.66     267.0  T
     SCC iter.                  ...        0 min,  0.005 sec
     gradient                   ...        0 min,  0.001 sec
 * total energy  :   -34.0992808 Eh     change       -0.2521542E-03 Eh
   gradient norm :     0.0046898 Eh/α   predicted    -0.1757209E-03 ( -30.31%)
   displ. norm   :     0.1519731 α      lambda       -0.1617178E-03
   maximum displ.:     0.1397513 α      in ANC's #2, #4, #9, ...

........................................................................
.............................. CYCLE    6 ..............................
........................................................................
   1    -34.7084814 -0.347085E+02  0.478E-02    3.64       0.0  T
   2    -34.7084835 -0.208637E-05  0.274E-02    3.63       1.0  T
   3    -34.7084838 -0.261796E-06  0.164E-02    3.64       1.3  T
   4    -34.7084843 -0.509390E-06  0.553E-03    3.64       3.8  T
   5    -34.7084848 -0.478645E-06  0.270E-03    3.64       7.7  T
   6    -34.7084848 -0.839400E-08  0.121E-03    3.64      17.2  T
   7    -34.7084848 -0.446058E-08  0.646E-04    3.64      32.3  T
   8    -34.7084848 -0.167734E-08  0.160E-04    3.64     129.9  T
     SCC iter.                  ...        0 min,  0.004 sec
     gradient                   ...        0 min,  0.001 sec
 * total energy  :   -34.0994244 Eh     change       -0.1435826E-03 Eh
   gradient norm :     0.0046308 Eh/α   predicted    -0.8272859E-04 ( -42.38%)
   displ. norm   :     0.1105934 α      lambda       -0.1230113E-03
   maximum displ.:     0.1089557 α      in ANC's #2, #4, #9, ...

........................................................................
.............................. CYCLE    7 ..............................
........................................................................
   1    -34.7088665 -0.347089E+02  0.424E-02    3.63       0.0  T
   2    -34.7088680 -0.141953E-05  0.264E-02    3.62       1.0  T
   3    -34.7088681 -0.185378E-06  0.153E-02    3.62       1.4  T
   4    -34.7088689 -0.750596E-06  0.381E-03    3.63       5.5  T
   5    -34.7088692 -0.312291E-06  0.157E-03    3.63      13.3  T
   6    -34.7088692  0.849674E-09  0.868E-04    3.63      24.0  T
   7    -34.7088692 -0.411884E-08  0.333E-04    3.63      62.7  T
     SCC iter.                  ...        0 min,  0.004 sec
     gradient                   ...        0 min,  0.001 sec
 * total energy  :   -34.0995383 Eh     change       -0.1138781E-03 Eh
   gradient norm :     0.0026279 Eh/α   predicted    -0.6225873E-04 ( -45.33%)
   displ. norm   :     0.1065026 α      lambda       -0.1130402E-03
   maximum displ.:     0.1052428 α      in ANC's #2, #4, #6, ...

........................................................................
.............................. CYCLE    8 ..............................
........................................................................
   1    -34.7095153 -0.347095E+02  0.494E-02    3.62       0.0  T
   2    -34.7095163 -0.102377E-05  0.299E-02    3.62       1.0  T
   3    -34.7095153  0.103456E-05  0.165E-02    3.62       1.3  T
   4    -34.7095170 -0.174087E-05  0.280E-03    3.62       7.4  T
   5    -34.7095172 -0.203588E-06  0.808E-04    3.62      25.8  T
   6    -34.7095172  0.226834E-09  0.536E-04    3.62      38.9  T
     SCC iter.                  ...        0 min,  0.003 sec
     gradient                   ...        0 min,  0.001 sec
 * total energy  :   -34.0996433 Eh     change       -0.1050018E-03 Eh
   gradient norm :     0.0012119 Eh/α   predicted    -0.5716879E-04 ( -45.55%)
   displ. norm   :     0.1631160 α      lambda       -0.1028148E-03
   maximum displ.:     0.1575520 α      in ANC's #2, #4, #9, ...

........................................................................
.............................. CYCLE    9 ..............................
........................................................................
   1    -34.7101533 -0.347102E+02  0.825E-02    3.62       0.0  T
   2    -34.7101545 -0.114111E-05  0.489E-02    3.62       1.0  T
   3    -34.7101507  0.373827E-05  0.214E-02    3.62       1.0  T
   4    -34.7101552 -0.443685E-05  0.282E-03    3.62       7.4  T
   5    -34.7101554 -0.213385E-06  0.703E-04    3.62      29.7  T
   6    -34.7101554 -0.334950E-10  0.432E-04    3.62      48.2  T
     SCC iter.                  ...        0 min,  0.003 sec
     gradient                   ...        0 min,  0.001 sec
 * total energy  :   -34.0997833 Eh     change       -0.1399951E-03 Eh
   gradient norm :     0.0025806 Eh/α   predicted    -0.5201801E-04 ( -62.84%)
   displ. norm   :     0.0965311 α      lambda       -0.8090268E-04
   maximum displ.:     0.0933465 α      in ANC's #2, #4, #9, ...

........................................................................
.............................. CYCLE   10 ..............................
........................................................................
   1    -34.7102914 -0.347103E+02  0.468E-02    3.62       0.0  T
   2    -34.7102915 -0.107940E-06  0.274E-02    3.62       1.0  T
   3    -34.7102914  0.135641E-06  0.435E-03    3.62       4.8  T
   4    -34.7102916 -0.165995E-06  0.782E-04    3.62      26.7  T
   5    -34.7102916 -0.114043E-07  0.281E-04    3.62      74.1  T
     SCC iter.                  ...        0 min,  0.003 sec
     gradient                   ...        0 min,  0.001 sec
 * total energy  :   -34.0998608 Eh     change       -0.7756746E-04 Eh
   gradient norm :     0.0024964 Eh/α   predicted    -0.4083225E-04 ( -47.36%)
   displ. norm   :     0.0909324 α      lambda       -0.7353341E-04
   maximum displ.:     0.0885149 α      in ANC's #2, #4, #9, ...

........................................................................
.............................. CYCLE   11 ..............................
........................................................................
   1    -34.7103236 -0.347103E+02  0.431E-02    3.61       0.0  T
   2    -34.7103237 -0.560081E-07  0.253E-02    3.61       1.0  T
   3    -34.7103235  0.180713E-06  0.325E-03    3.61       6.4  T
   4    -34.7103237 -0.214083E-06  0.560E-04    3.61      37.2  T
   5    -34.7103237 -0.290443E-08  0.289E-04    3.61      72.1  T
     SCC iter.                  ...        0 min,  0.003 sec
     gradient                   ...        0 min,  0.001 sec
 * total energy  :   -34.0999309 Eh     change       -0.7009275E-04 Eh
   gradient norm :     0.0016771 Eh/α   predicted    -0.3707160E-04 ( -47.11%)
   displ. norm   :     0.1274659 α      lambda       -0.6423003E-04
   maximum displ.:     0.1255882 α      in ANC's #2, #4, #9, ...

........................................................................
.............................. CYCLE   12 ..............................
........................................................................
   1    -34.7102034 -0.347102E+02  0.554E-02    3.61       0.0  T
   2    -34.7102035 -0.129409E-06  0.324E-02    3.61       1.0  T
   3    -34.7102031  0.432947E-06  0.513E-03    3.61       4.1  T
   4    -34.7102036 -0.502385E-06  0.102E-03    3.61      20.5  T
   5    -34.7102036 -0.110605E-07  0.509E-04    3.61      41.0  T
   6    -34.7102036 -0.336726E-10  0.203E-04    3.61     102.5  T
     SCC iter.                  ...        0 min,  0.003 sec
     gradient                   ...        0 min,  0.001 sec
 * total energy  :   -34.1000204 Eh     change       -0.8942275E-04 Eh
   gradient norm :     0.0007312 Eh/α   predicted    -0.3235152E-04 ( -63.82%)
   displ. norm   :     0.1090823 α      lambda       -0.4913273E-04
   maximum displ.:     0.1087381 α      in ANC's #2, #15, #11, ...

........................................................................
.............................. CYCLE   13 ..............................
........................................................................
   1    -34.7102902 -0.347103E+02  0.419E-02    3.60       0.0  T
   2    -34.7102903 -0.182303E-06  0.242E-02    3.60       1.0  T
   3    -34.7102902  0.952370E-07  0.490E-03    3.60       4.3  T
   4    -34.7102904 -0.128172E-06  0.126E-03    3.60      16.5  T
   5    -34.7102904 -0.125681E-07  0.662E-04    3.60      31.5  T
   6    -34.7102904 -0.550180E-09  0.327E-04    3.60      63.8  T
     SCC iter.                  ...        0 min,  0.003 sec
     gradient                   ...        0 min,  0.001 sec
 * total energy  :   -34.1000900 Eh     change       -0.6967556E-04 Eh
   gradient norm :     0.0012489 Eh/α   predicted    -0.2470053E-04 ( -64.55%)
   displ. norm   :     0.0974184 α      lambda       -0.4119184E-04
   maximum displ.:     0.0969614 α      in ANC's #2, #4, #15, ...

........................................................................
.............................. CYCLE   14 ..............................
........................................................................
   1    -34.7102799 -0.347103E+02  0.331E-02    3.59       0.0  T
   2    -34.7102802 -0.309019E-06  0.191E-02    3.59       1.1  T
   3    -34.7102799  0.311422E-06  0.848E-03    3.59       2.5  T
   4    -34.7102803 -0.381956E-06  0.186E-03    3.59      11.2  T
   5    -34.7102804 -0.671085E-07  0.745E-04    3.59      28.0  T
   6    -34.7102804 -0.512863E-09  0.379E-04    3.59      55.0  T
     SCC iter.                  ...        0 min,  0.003 sec
     gradient                   ...        0 min,  0.001 sec
 * total energy  :   -34.1001484 Eh     change       -0.5837211E-04 Eh
   gradient norm :     0.0012600 Eh/α   predicted    -0.2068534E-04 ( -64.56%)
   displ. norm   :     0.0915709 α      lambda       -0.3617119E-04
   maximum displ.:     0.0908057 α      in ANC's #2, #4, #15, ...

........................................................................
.............................. CYCLE   15 ..............................
........................................................................
   1    -34.7104388 -0.347104E+02  0.317E-02    3.58       0.0  T
   2    -34.7104392 -0.375213E-06  0.183E-02    3.58       1.1  T
   3    -34.7104389  0.330181E-06  0.945E-03    3.58       2.2  T
   4    -34.7104393 -0.455217E-06  0.213E-03    3.58       9.8  T
   5    -34.7104394 -0.894695E-07  0.860E-04    3.58      24.2  T
   6    -34.7104394 -0.479936E-09  0.444E-04    3.58      46.9  T
     SCC iter.                  ...        0 min,  0.003 sec
     gradient                   ...        0 min,  0.001 sec
 * total energy  :   -34.1001998 Eh     change       -0.5136448E-04 Eh
   gradient norm :     0.0009910 Eh/α   predicted    -0.1815343E-04 ( -64.66%)
   displ. norm   :     0.0870046 α      lambda       -0.3123191E-04
   maximum displ.:     0.0864645 α      in ANC's #2, #4, #15, ...

........................................................................
.............................. CYCLE   16 ..............................
........................................................................
   1    -34.7106068 -0.347106E+02  0.304E-02    3.58       0.0  T
   2    -34.7106071 -0.340218E-06  0.178E-02    3.57       1.2  T
   3    -34.7106068  0.347087E-06  0.926E-03    3.58       2.3  T
   4    -34.7106073 -0.488095E-06  0.195E-03    3.58      10.7  T
   5    -34.7106073 -0.788847E-07  0.789E-04    3.58      26.4  T
   6    -34.7106073 -0.315133E-09  0.415E-04    3.58      50.2  T
     SCC iter.                  ...        0 min,  0.003 sec
     gradient                   ...        0 min,  0.001 sec
 * total energy  :   -34.1002442 Eh     change       -0.4440713E-04 Eh
   gradient norm :     0.0005936 Eh/α   predicted    -0.1567234E-04 ( -64.71%)
   displ. norm   :     0.0821061 α      lambda       -0.2711078E-04
   maximum displ.:     0.0816254 α      in ANC's #2, #15, #10, ...

........................................................................
.............................. CYCLE   17 ..............................
........................................................................
   1    -34.7106954 -0.347107E+02  0.308E-02    3.57       0.0  T
   2    -34.7106957 -0.265201E-06  0.179E-02    3.57       1.2  T
   3    -34.7106953  0.401445E-06  0.869E-03    3.57       2.4  T
   4    -34.7106958 -0.509839E-06  0.171E-03    3.57      12.2  T
   5    -34.7106958 -0.624227E-07  0.621E-04    3.57      33.6  T
   6    -34.7106958 -0.123791E-09  0.332E-04    3.57      62.7  T
     SCC iter.                  ...        0 min,  0.003 sec
     gradient                   ...        0 min,  0.001 sec
 * total energy  :   -34.1002821 Eh     change       -0.3795776E-04 Eh
   gradient norm :     0.0006005 Eh/α   predicted    -0.1359979E-04 ( -64.17%)
   displ. norm   :     0.0754949 α      lambda       -0.2314956E-04
   maximum displ.:     0.0750330 α      in ANC's #2, #15, #10, ...

........................................................................
.............................. CYCLE   18 ..............................
........................................................................
   1    -34.7108044 -0.347108E+02  0.294E-02    3.57       0.0  T
   2    -34.7108045 -0.159980E-06  0.172E-02    3.57       1.2  T
   3    -34.7108042  0.330254E-06  0.686E-03    3.57       3.0  T
   4    -34.7108046 -0.387856E-06  0.126E-03    3.57      16.5  T
   5    -34.7108046 -0.314266E-07  0.540E-04    3.57      38.6  T
   6    -34.7108046 -0.268031E-09  0.276E-04    3.57      75.5  T
     SCC iter.                  ...        0 min,  0.003 sec
     gradient                   ...        0 min,  0.001 sec
 * total energy  :   -34.1003147 Eh     change       -0.3259279E-04 Eh
   gradient norm :     0.0006034 Eh/α   predicted    -0.1160565E-04 ( -64.39%)
   displ. norm   :     0.0691240 α      lambda       -0.1926850E-04
   maximum displ.:     0.0686210 α      in ANC's #2, #4, #15, ...

........................................................................
.............................. CYCLE   19 ..............................
........................................................................
   1    -34.7109208 -0.347109E+02  0.272E-02    3.56       0.0  T
   2    -34.7109209 -0.851901E-07  0.158E-02    3.56       1.3  T
   3    -34.7109208  0.153927E-06  0.467E-03    3.56       4.5  T
   4    -34.7109209 -0.175380E-06  0.101E-03    3.56      20.7  T
   5    -34.7109210 -0.164178E-07  0.468E-04    3.56      44.6  T
   6    -34.7109210 -0.195598E-09  0.240E-04    3.56      86.7  T
     SCC iter.                  ...        0 min,  0.003 sec
     gradient                   ...        0 min,  0.001 sec
 * total energy  :   -34.1003421 Eh     change       -0.2735993E-04 Eh
   gradient norm :     0.0006252 Eh/α   predicted    -0.9655374E-05 ( -64.71%)
   displ. norm   :     0.0648605 α      lambda       -0.1686443E-04
   maximum displ.:     0.0642960 α      in ANC's #2, #4, #13, ...

........................................................................
.............................. CYCLE   20 ..............................
........................................................................
   1    -34.7109261 -0.347109E+02  0.263E-02    3.56       0.0  T
   2    -34.7109262 -0.638328E-07  0.154E-02    3.56       1.4  T
   3    -34.7109261  0.909333E-07  0.365E-03    3.56       5.7  T
   4    -34.7109262 -0.104747E-06  0.735E-04    3.56      28.4  T
   5    -34.7109262 -0.931050E-08  0.275E-04    3.56      75.7  T
     SCC iter.                  ...        0 min,  0.003 sec
     gradient                   ...        0 min,  0.001 sec
 * total energy  :   -34.1003659 Eh     change       -0.2379621E-04 Eh
   gradient norm :     0.0004598 Eh/α   predicted    -0.8451800E-05 ( -64.48%)
   displ. norm   :     0.0593095 α      lambda       -0.1397097E-04
   maximum displ.:     0.0589124 α      in ANC's #2, #4, #15, ...
 * RMSD in coord.:     0.4443766 α      energy gain  -0.1131607E-01 Eh

generating ANC from model Hessian ...
Using Lindh-Hessian (1995)
 Shifting diagonal of input Hessian by   9.734320607921490E-003
 Lowest  eigenvalues of input Hessian
    0.000000    0.000000    0.000000    0.000000    0.000000    0.000000
    0.010000    0.010085    0.010181    0.011427    0.012270    0.019683
    0.021190    0.023889    0.023914    0.029528    0.031349    0.034354
 Highest eigenvalues
    1.881313    1.881478    1.963318    1.964239    1.994004    1.994372
 

........................................................................
.............................. CYCLE   21 ..............................
........................................................................
   1    -34.7109249 -0.347109E+02  0.230E-02    3.55       0.0  T
   2    -34.7109249 -0.503526E-07  0.134E-02    3.55       1.6  T
   3    -34.7109249  0.466562E-07  0.292E-03    3.55       7.1  T
   4    -34.7109249 -0.564725E-07  0.622E-04    3.55      33.5  T
   5    -34.7109249 -0.567287E-08  0.272E-04    3.55      76.6  T
     SCC iter.                  ...        0 min,  0.003 sec
     gradient                   ...        0 min,  0.001 sec
 * total energy  :   -34.1003859 Eh     change       -0.2001179E-04 Eh
   gradient norm :     0.0003376 Eh/α   predicted     0.0000000E+00 (-100.00%)
   displ. norm   :     0.0485260 α      lambda       -0.2223285E-06
   maximum displ.:     0.0483907 α      in ANC's #1, #4, #15, ...

........................................................................
.............................. CYCLE   22 ..............................
........................................................................
   1    -34.7109427 -0.347109E+02  0.167E-02    3.55       0.0  T
   2    -34.7109428 -0.502467E-07  0.976E-03    3.55       2.1  T
   3    -34.7109427  0.835269E-07  0.381E-03    3.55       5.5  T
   4    -34.7109428 -0.101604E-06  0.121E-03    3.55      17.3  T
   5    -34.7109428 -0.105786E-07  0.772E-04    3.55      27.0  T
   6    -34.7109428 -0.143108E-08  0.317E-04    3.55      65.8  T
     SCC iter.                  ...        0 min,  0.003 sec
     gradient                   ...        0 min,  0.001 sec
 * total energy  :   -34.1004008 Eh     change       -0.1494386E-04 Eh
   gradient norm :     0.0003725 Eh/α   predicted    -0.5272682E-05 ( -64.72%)
   displ. norm   :     0.0493221 α      lambda       -0.1020438E-04
   maximum displ.:     0.0476804 α      in ANC's #1, #4, #15, ...

........................................................................
.............................. CYCLE   23 ..............................
........................................................................
   1    -34.7110616 -0.347111E+02  0.209E-02    3.55       0.0  T
   2    -34.7110617 -0.420960E-07  0.122E-02    3.55       1.7  T
   3    -34.7110617  0.125506E-07  0.226E-03    3.55       9.2  T
   4    -34.7110617 -0.233593E-07  0.849E-04    3.55      24.6  T
   5    -34.7110617 -0.122428E-08  0.641E-04    3.55      32.5  T
     SCC iter.                  ...        0 min,  0.003 sec
     gradient                   ...        0 min,  0.001 sec
 * total energy  :   -34.1004149 Eh     change       -0.1401682E-04 Eh
   gradient norm :     0.0003827 Eh/α   predicted    -0.5110261E-05 ( -63.54%)
   displ. norm   :     0.0472796 α      lambda       -0.8971397E-05
   maximum displ.:     0.0461749 α      in ANC's #1, #4, #11, ...

........................................................................
.............................. CYCLE   24 ..............................
........................................................................
   1    -34.7110048 -0.347110E+02  0.190E-02    3.55       0.0  T
   2    -34.7110049 -0.379274E-07  0.113E-02    3.54       1.9  T
   3    -34.7110048  0.108906E-06  0.358E-03    3.55       5.8  T
   4    -34.7110049 -0.125536E-06  0.860E-04    3.55      24.2  T
   5    -34.7110049 -0.724984E-08  0.551E-04    3.54      37.9  T
     SCC iter.                  ...        0 min,  0.003 sec
     gradient                   ...        0 min,  0.001 sec
 * total energy  :   -34.1004274 Eh     change       -0.1257273E-04 Eh
   gradient norm :     0.0003238 Eh/α   predicted    -0.4491789E-05 ( -64.27%)
   displ. norm   :     0.0427646 α      lambda       -0.7453443E-05
   maximum displ.:     0.0418147 α      in ANC's #1, #4, #10, ...

........................................................................
.............................. CYCLE   25 ..............................
........................................................................
   1    -34.7110246 -0.347110E+02  0.171E-02    3.54       0.0  T
   2    -34.7110247 -0.409959E-07  0.999E-03    3.54       2.1  T
   3    -34.7110246  0.792387E-07  0.343E-03    3.54       6.1  T
   4    -34.7110247 -0.918656E-07  0.756E-04    3.54      27.6  T
   5    -34.7110247 -0.793749E-08  0.424E-04    3.54      49.2  T
     SCC iter.                  ...        0 min,  0.003 sec
     gradient                   ...        0 min,  0.001 sec
 * total energy  :   -34.1004379 Eh     change       -0.1048425E-04 Eh
   gradient norm :     0.0002713 Eh/α   predicted    -0.3731731E-05 ( -64.41%)
   displ. norm   :     0.0381654 α      lambda       -0.6091590E-05
   maximum displ.:     0.0378239 α      in ANC's #1, #4, #18, ...

........................................................................
.............................. CYCLE   26 ..............................
........................................................................
   1    -34.7110838 -0.347111E+02  0.138E-02    3.54       0.0  T
   2    -34.7110838 -0.332573E-07  0.800E-03    3.54       2.6  T
   3    -34.7110838  0.490475E-07  0.291E-03    3.54       7.2  T
   4    -34.7110838 -0.580614E-07  0.718E-04    3.54      29.0  T
   5    -34.7110838 -0.608242E-08  0.402E-04    3.54      51.9  T
     SCC iter.                  ...        0 min,  0.003 sec
     gradient                   ...        0 min,  0.001 sec
 * total energy  :   -34.1004466 Eh     change       -0.8708549E-05 Eh
   gradient norm :     0.0002480 Eh/α   predicted    -0.3049922E-05 ( -64.98%)
   displ. norm   :     0.0353449 α      lambda       -0.5256984E-05
   maximum displ.:     0.0350853 α      in ANC's #1, #4, #10, ...

........................................................................
.............................. CYCLE   27 ..............................
........................................................................
   1    -34.7110979 -0.347111E+02  0.128E-02    3.54       0.0  T
   2    -34.7110980 -0.230415E-07  0.741E-03    3.54       2.8  T
   3    -34.7110979  0.257951E-07  0.230E-03    3.54       9.1  T
   4    -34.7110980 -0.315952E-07  0.681E-04    3.54      30.6  T
   5    -34.7110980 -0.299333E-08  0.463E-04    3.54      45.0  T
     SCC iter.                  ...        0 min,  0.003 sec
     gradient                   ...        0 min,  0.001 sec
 * total energy  :   -34.1004541 Eh     change       -0.7508284E-05 Eh
   gradient norm :     0.0002370 Eh/α   predicted    -0.2631524E-05 ( -64.95%)
   displ. norm   :     0.0327606 α      lambda       -0.4524652E-05
   maximum displ.:     0.0325623 α      in ANC's #1, #4, #11, ...

........................................................................
.............................. CYCLE   28 ..............................
........................................................................
   1    -34.7111186 -0.347111E+02  0.113E-02    3.53       0.0  T
   2    -34.7111186 -0.291542E-07  0.646E-03    3.53       3.2  T
   3    -34.7111186  0.317656E-07  0.258E-03    3.53       8.1  T
   4    -34.7111186 -0.382081E-07  0.626E-04    3.53      33.3  T
   5    -34.7111186 -0.539300E-08  0.330E-04    3.53      63.2  T
     SCC iter.                  ...        0 min,  0.003 sec
     gradient                   ...        0 min,  0.001 sec
 * total energy  :   -34.1004606 Eh     change       -0.6461076E-05 Eh
   gradient norm :     0.0002093 Eh/α   predicted    -0.2265593E-05 ( -64.93%)
   displ. norm   :     0.0300498 α      lambda       -0.3813971E-05
   maximum displ.:     0.0299012 α      in ANC's #1, #4, #13, ...

........................................................................
.............................. CYCLE   29 ..............................
........................................................................
   1    -34.7111619 -0.347112E+02  0.103E-02    3.53       0.0  T
   2    -34.7111619 -0.201551E-07  0.593E-03    3.53       3.5  T
   3    -34.7111619  0.233183E-07  0.217E-03    3.53       9.6  T
   4    -34.7111619 -0.274711E-07  0.472E-04    3.53      44.1  T
   5    -34.7111619 -0.364922E-08  0.207E-04    3.53     100.6  T
     SCC iter.                  ...        0 min,  0.003 sec
     gradient                   ...        0 min,  0.001 sec
 * total energy  :   -34.1004661 Eh     change       -0.5482799E-05 Eh
   gradient norm :     0.0001812 Eh/α   predicted    -0.1908638E-05 ( -65.19%)
   displ. norm   :     0.0279442 α      lambda       -0.3269678E-05
   maximum displ.:     0.0277187 α      in ANC's #1, #4, #11, ...

........................................................................
.............................. CYCLE   30 ..............................
........................................................................
   1    -34.7111681 -0.347112E+02  0.993E-03    3.53       0.0  T
   2    -34.7111681 -0.144803E-07  0.579E-03    3.53       3.6  T
   3    -34.7111681  0.261907E-07  0.200E-03    3.53      10.4  T
   4    -34.7111681 -0.302440E-07  0.432E-04    3.53      48.2  T
   5    -34.7111681 -0.286425E-08  0.214E-04    3.53      97.3  T
     SCC iter.                  ...        0 min,  0.003 sec
     gradient                   ...        0 min,  0.001 sec
 * total energy  :   -34.1004708 Eh     change       -0.4703393E-05 Eh
   gradient norm :     0.0001691 Eh/α   predicted    -0.1635815E-05 ( -65.22%)
   displ. norm   :     0.0261109 α      lambda       -0.2832805E-05
   maximum displ.:     0.0258349 α      in ANC's #1, #4, #11, ...

........................................................................
.............................. CYCLE   31 ..............................
........................................................................
   1    -34.7111833 -0.347112E+02  0.946E-03    3.53       0.0  T
   2    -34.7111833 -0.145940E-07  0.548E-03    3.53       3.8  T
   3    -34.7111833  0.220246E-07  0.193E-03    3.53      10.8  T
   4    -34.7111833 -0.255409E-07  0.410E-04    3.53      50.8  T
   5    -34.7111833 -0.283548E-08  0.182E-04    3.53     114.7  T
     SCC iter.                  ...        0 min,  0.003 sec
     gradient                   ...        0 min,  0.001 sec
 * total energy  :   -34.1004748 Eh     change       -0.4062555E-05 Eh
   gradient norm :     0.0001612 Eh/α   predicted    -0.1417142E-05 ( -65.12%)
   displ. norm   :     0.0245345 α      lambda       -0.2478595E-05
   maximum displ.:     0.0241954 α      in ANC's #1, #4, #7, ...

........................................................................
.............................. CYCLE   32 ..............................
........................................................................
   1    -34.7112061 -0.347112E+02  0.908E-03    3.53       0.0  T
   2    -34.7112061 -0.116517E-07  0.530E-03    3.53       3.9  T
   3    -34.7112061  0.220679E-07  0.174E-03    3.53      12.0  T
   4    -34.7112061 -0.256182E-07  0.347E-04    3.53      60.0  T
   5    -34.7112061 -0.185984E-08  0.172E-04    3.53     120.9  T
     SCC iter.                  ...        0 min,  0.003 sec
     gradient                   ...        0 min,  0.001 sec
 * total energy  :   -34.1004784 Eh     change       -0.3513030E-05 Eh
   gradient norm :     0.0001590 Eh/α   predicted    -0.1240024E-05 ( -64.70%)
   displ. norm   :     0.0231053 α      lambda       -0.2193552E-05
   maximum displ.:     0.0227030 α      in ANC's #1, #4, #7, ...

........................................................................
.............................. CYCLE   33 ..............................
........................................................................
   1    -34.7112145 -0.347112E+02  0.884E-03    3.53       0.0  T
   2    -34.7112146 -0.101616E-07  0.508E-03    3.53       4.1  T
   3    -34.7112145  0.235626E-07  0.162E-03    3.53      12.9  T
   4    -34.7112146 -0.273929E-07  0.405E-04    3.53      51.5  T
   5    -34.7112146 -0.176840E-08  0.211E-04    3.53      98.7  T
     SCC iter.                  ...        0 min,  0.003 sec
     gradient                   ...        0 min,  0.001 sec
 * total energy  :   -34.1004814 Eh     change       -0.3041982E-05 Eh
   gradient norm :     0.0001626 Eh/α   predicted    -0.1100277E-05 ( -63.83%)
   displ. norm   :     0.0210484 α      lambda       -0.1878887E-05
   maximum displ.:     0.0207601 α      in ANC's #1, #4, #7, ...

........................................................................
.............................. CYCLE   34 ..............................
........................................................................
   1    -34.7112197 -0.347112E+02  0.773E-03    3.52       0.0  T
   2    -34.7112197 -0.890606E-08  0.450E-03    3.52       4.6  T
   3    -34.7112197  0.132422E-07  0.143E-03    3.52      14.6  T
   4    -34.7112197 -0.154818E-07  0.294E-04    3.52      70.8  T
   5    -34.7112197 -0.131912E-08  0.146E-04    3.52     142.4  T
     SCC iter.                  ...        0 min,  0.003 sec
     gradient                   ...        0 min,  0.001 sec
 * total energy  :   -34.1004840 Eh     change       -0.2631126E-05 Eh
   gradient norm :     0.0001392 Eh/α   predicted    -0.9403307E-06 ( -64.26%)
   displ. norm   :     0.0193570 α      lambda       -0.1567267E-05
   maximum displ.:     0.0191849 α      in ANC's #1, #4, #13, ...

........................................................................
.............................. CYCLE   35 ..............................
........................................................................
   1    -34.7112411 -0.347112E+02  0.683E-03    3.52       0.0  T
   2    -34.7112411 -0.897840E-08  0.395E-03    3.52       5.3  T
   3    -34.7112411  0.112810E-07  0.146E-03    3.52      14.3  T
   4    -34.7112411 -0.132725E-07  0.295E-04    3.52      70.7  T
   5    -34.7112411 -0.161200E-08  0.121E-04    3.52     171.7  T
     SCC iter.                  ...        0 min,  0.003 sec
     gradient                   ...        0 min,  0.001 sec
 * total energy  :   -34.1004863 Eh     change       -0.2239659E-05 Eh
   gradient norm :     0.0001197 Eh/α   predicted    -0.7848835E-06 ( -64.96%)
   displ. norm   :     0.0179081 α      lambda       -0.1318763E-05
   maximum displ.:     0.0177649 α      in ANC's #1, #4, #11, ...

........................................................................
.............................. CYCLE   36 ..............................
........................................................................
   1    -34.7112499 -0.347112E+02  0.633E-03    3.52       0.0  T
   2    -34.7112499 -0.516351E-08  0.370E-03    3.52       5.6  T
   3    -34.7112498  0.109558E-07  0.123E-03    3.52      17.0  T
   4    -34.7112499 -0.125915E-07  0.273E-04    3.52      76.4  T
   5    -34.7112499 -0.103648E-08  0.145E-04    3.52     144.2  T
     SCC iter.                  ...        0 min,  0.003 sec
     gradient                   ...        0 min,  0.001 sec
 * total energy  :   -34.1004882 Eh     change       -0.1914751E-05 Eh
   gradient norm :     0.0001052 Eh/α   predicted    -0.6624067E-06 ( -65.41%)
   displ. norm   :     0.0164915 α      lambda       -0.1130745E-05
   maximum displ.:     0.0163700 α      in ANC's #1, #4, #14, ...

........................................................................
.............................. CYCLE   37 ..............................
........................................................................
   1    -34.7112617 -0.347113E+02  0.573E-03    3.52       0.0  T
   2    -34.7112617 -0.599559E-08  0.331E-03    3.52       6.3  T
   3    -34.7112617  0.754518E-08  0.119E-03    3.52      17.5  T
   4    -34.7112617 -0.883079E-08  0.254E-04    3.52      82.2  T
   5    -34.7112617 -0.111288E-08  0.103E-04    3.52     202.3  T
     SCC iter.                  ...        0 min,  0.003 sec
     gradient                   ...        0 min,  0.001 sec
 * total energy  :   -34.1004898 Eh     change       -0.1633345E-05 Eh
   gradient norm :     0.0000973 Eh/α   predicted    -0.5673412E-06 ( -65.27%)
   displ. norm   :     0.0153555 α      lambda       -0.9748144E-06
   maximum displ.:     0.0152102 α      in ANC's #1, #4, #11, ...

........................................................................
.............................. CYCLE   38 ..............................
........................................................................
   1    -34.7112631 -0.347113E+02  0.548E-03    3.52       0.0  T
   2    -34.7112632 -0.361256E-08  0.321E-03    3.52       6.5  T
   3    -34.7112631  0.748076E-08  0.101E-03    3.52      20.7  T
   4    -34.7112632 -0.858223E-08  0.220E-04    3.52      94.7  T
   5    -34.7112632 -0.685979E-09  0.117E-04    3.52     178.7  T
     SCC iter.                  ...        0 min,  0.003 sec
     gradient                   ...        0 min,  0.001 sec
 * total energy  :   -34.1004912 Eh     change       -0.1405814E-05 Eh
   gradient norm :     0.0000921 Eh/α   predicted    -0.4890592E-06 ( -65.21%)
   displ. norm   :     0.0143029 α      lambda       -0.8445205E-06
   maximum displ.:     0.0141813 α      in ANC's #1, #4, #14, ...

........................................................................
.............................. CYCLE   39 ..............................
........................................................................
   1    -34.7112836 -0.347113E+02  0.504E-03    3.52       0.0  T
   2    -34.7112836 -0.502714E-08  0.289E-03    3.52       7.2  T
   3    -34.7112836  0.539800E-08  0.107E-03    3.52      19.6  T
   4    -34.7112836 -0.634080E-08  0.216E-04    3.52      96.5  T
   5    -34.7112836 -0.897927E-09  0.713E-05    3.52     292.3  T
     SCC iter.                  ...        0 min,  0.003 sec
     gradient                   ...        0 min,  0.001 sec
 * total energy  :   -34.1004924 Eh     change       -0.1215829E-05 Eh
   gradient norm :     0.0000872 Eh/α   predicted    -0.4245689E-06 ( -65.08%)
   displ. norm   :     0.0133317 α      lambda       -0.7268412E-06
   maximum displ.:     0.0131893 α      in ANC's #1, #4, #3, ...

........................................................................
.............................. CYCLE   40 ..............................
........................................................................
   1    -34.7112785 -0.347113E+02  0.479E-03    3.52       0.0  T
   2    -34.7112785 -0.248294E-08  0.281E-03    3.52       7.4  T
   3    -34.7112785  0.560291E-08  0.847E-04    3.52      24.6  T
   4    -34.7112785 -0.643062E-08  0.183E-04    3.52     113.9  T
     SCC iter.                  ...        0 min,  0.002 sec
     gradient                   ...        0 min,  0.001 sec
 * total energy  :   -34.1004935 Eh     change       -0.1050257E-05 Eh
   gradient norm :     0.0000799 Eh/α   predicted    -0.3656713E-06 ( -65.18%)
   displ. norm   :     0.0123101 α      lambda       -0.6226898E-06
   maximum displ.:     0.0121970 α      in ANC's #1, #4, #11, ...

........................................................................
.............................. CYCLE   41 ..............................
........................................................................
   1    -34.7112935 -0.347113E+02  0.438E-03    3.52       0.0  T
   2    -34.7112936 -0.306142E-08  0.254E-03    3.52       8.2  T
   3    -34.7112935  0.494161E-08  0.897E-04    3.52      23.2  T
   4    -34.7112936 -0.566755E-08  0.190E-04    3.52     109.9  T
     SCC iter.                  ...        0 min,  0.002 sec
     gradient                   ...        0 min,  0.001 sec
 * total energy  :   -34.1004944 Eh     change       -0.9008056E-06 Eh
   gradient norm :     0.0000717 Eh/α   predicted    -0.3125885E-06 ( -65.30%)
   displ. norm   :     0.0112230 α      lambda       -0.5278199E-06
   maximum displ.:     0.0111082 α      in ANC's #1, #4, #11, ...

   *** GEOMETRY OPTIMIZATION CONVERGED AFTER 41 ITERATIONS ***

------------------------------------------------------------------------
 total energy gain   :        -0.0114446 Eh       -7.1816 kcal/mol
 total RMSD          :         0.5570268 a0        0.2948 Å
 total power (kW/mol):        -0.7328715 (step) -129.8941 (real)
------------------------------------------------------------------------

 ANCopt (total)                0 d,  0 h,  0 min,  0.231 sec
 optimizer setup                ...        0 min,  0.000 sec (  0.048%)
 model hessian                  ...        0 min,  0.005 sec (  2.276%)
 ANC generation                 ...        0 min,  0.001 sec (  0.370%)
 coordinate transformation      ...        0 min,  0.000 sec (  0.086%)
 single point calculation       ...        0 min,  0.220 sec ( 95.315%)
 optimization log               ...        0 min,  0.002 sec (  0.909%)
 hessian update                 ...        0 min,  0.000 sec (  0.145%)
 rational function              ...        0 min,  0.001 sec (  0.472%)

================
 final structure:
================
23
 xtb: 6.5.1 (579679a)
C           -3.16848628800794       -2.09865603278622       -0.20361758801325
C           -1.78271222624032       -2.09513842776004       -0.22781119248849
C           -1.08693859295818       -0.89679291097951       -0.19933210716486
C           -1.76720442167848        0.30763375184165       -0.10279834132055
C           -3.14855745069497        0.26976090549748       -0.06145272618068
C           -3.87182292914967       -0.90755040540225       -0.10708278468341
H           -3.71316257633929       -3.02925383321441       -0.23598202367247
H           -1.24374528189487       -3.02844370516387       -0.27294897581925
H           -0.00858561148503       -0.89024996927647       -0.22836683579052
H           -1.22537176815834        1.23862349433438       -0.04867435500656
H           -4.94916046608675       -0.91148110061400       -0.05628292391173
I           -4.21638412856889        2.11808851938078        0.35377630984487
C           -4.62750556226125        2.82877114088683       -1.65023554182355
C           -3.70455500894479        3.66058643004954       -2.25678964208281
C           -5.81075298277325        2.44697076232811       -2.25506069630033
C           -3.98393808960927        4.11711495506678       -3.53569409463752
H           -2.79588520316423        3.95607434948347       -1.75646239542447
C           -6.06721035754677        2.91673407056821       -3.53397728655716
H           -6.52148095378682        1.80938268745125       -1.75339168700168
C           -5.15921389256088        3.74794623064706       -4.17049168938182
H           -3.27859084231284        4.76839283042393       -4.02763221395152
H           -6.98500264693945        2.63275023499633       -4.02458070228000
H           -5.37143271883898        4.11483602224576       -5.16251050635395
 
 Bond Distances (Angstroems)
 ---------------------------
C1-C2=1.3860         C1-C6=1.3866         C1-H7=1.0788         C2-C1=1.3860         C2-C3=1.3860         C2-H8=1.0787         
C3-C2=1.3860         C3-C4=1.3866         C3-H9=1.0788         C4-C3=1.3866         C4-C5=1.3825         C4-H10=1.0785        
C5-C4=1.3825         C5-C6=1.3825         C5-I12=2.1746        C6-C1=1.3866         C6-C5=1.3825         C6-H11=1.0785        
H7-C1=1.0788         H8-C2=1.0787         H9-C3=1.0788         H10-C4=1.0785        H11-C6=1.0785        I12-C5=2.1746        
I12-C13=2.1657       C13-I12=2.1657       C13-C14=1.3826       C13-C15=1.3826       C14-C13=1.3826       C14-C16=1.3864       
C14-H17=1.0786       C15-C13=1.3826       C15-C18=1.3864       C15-H19=1.0786       C16-C14=1.3864       C16-C20=1.3858       
C16-H21=1.0787       H17-C14=1.0786       C18-C15=1.3864       C18-C20=1.3858       C18-H22=1.0787       H19-C15=1.0786       
C20-C16=1.3858       C20-C18=1.3858       C20-H23=1.0788       H21-C16=1.0787       H22-C18=1.0787       H23-C20=1.0788       
 C  H  Rav=1.0787 sigma=0.0001  Rmin=1.0785  Rmax=1.0788    10
 C  C  Rav=1.3850 sigma=0.0017  Rmin=1.3825  Rmax=1.3866    12
 I  C  Rav=2.1701 sigma=0.0045  Rmin=2.1657  Rmax=2.1746     2
 
 selected bond angles (degree)
 --------------------
C6-C1-C2=120.41                H7-C1-C2=120.43                H7-C1-C6=119.14                C3-C2-C1=120.25                
H8-C2-C1=119.87                H8-C2-C3=119.88                C4-C3-C2=120.41                H9-C3-C2=120.43                
H9-C3-C4=119.14                C5-C4-C3=117.94                H10-C4-C3=120.45               H10-C4-C5=121.61               
C6-C5-C4=123.03                I12-C5-C4=118.23               I12-C5-C6=118.24               C5-C6-C1=117.93                
H11-C6-C1=120.45               H11-C6-C5=121.61               
 
 selected dihedral angles (degree)
 ---------------------------------
C3-C2-C1-C6=357.90            C3-C2-C1-H7=179.36            H8-C2-C1-C6=178.15            H8-C2-C1-H7=359.61            
C4-C3-C2-C1=  2.09            C4-C3-C2-H8=181.85            H9-C3-C2-C1=180.64            H9-C3-C2-H8=  0.39            
C5-C4-C3-C2=358.85            C5-C4-C3-H9=180.28            H10-C4-C3-C2=178.03           H10-C4-C3-H9=359.47           
C6-C5-C4-C3=  0.24            C6-C5-C4-H10=181.06           I12-C5-C4-C3=172.03           I12-C5-C4-H10=352.86          
C5-C6-C1-C2=  1.16            C5-C6-C1-H7=179.72            H11-C6-C1-C2=181.97           H11-C6-C1-H7=  0.53           
C1-C6-C5-C4=359.76            C1-C6-C5-I12=187.97           H11-C6-C5-C4=178.94           H11-C6-C5-I12=  7.15          
           -------------------------------------------------
          |                Final Singlepoint                |
           -------------------------------------------------

          ...................................................
          :                      SETUP                      :
          :.................................................:
          :  # basis functions                  68          :
          :  # atomic orbitals                  67          :
          :  # shells                           37          :
          :  # electrons                        64          :
          :  max. iterations                   250          :
          :  Hamiltonian                  GFN2-xTB          :
          :  restarted?                      false          :
          :  GBSA solvation                  false          :
          :  PC potential                    false          :
          :  electronic temp.          300.0000000     K    :
          :  accuracy                    1.0000000          :
          :  -> integral cutoff          0.2500000E+02      :
          :  -> integral neglect         0.1000000E-07      :
          :  -> SCF convergence          0.1000000E-05 Eh   :
          :  -> wf. convergence          0.1000000E-03 e    :
          :  Broyden damping             0.4000000          :
          ...................................................

 iter      E             dE          RMSdq      gap      omega  full diag
   1    -34.7112936 -0.347113E+02  0.809E-05    3.52       0.0  T
   2    -34.7112936 -0.454747E-11  0.604E-05    3.52     345.4  T
   3    -34.7112936  0.118590E-10  0.404E-05    3.52     516.7  T

   *** convergence criteria satisfied after 3 iterations ***

         #    Occupation            Energy/Eh            Energy/eV
      -------------------------------------------------------------
         1        2.0000           -0.9283271             -25.2611
       ...           ...                  ...                  ...
        26        2.0000           -0.5819724             -15.8363
        27        2.0000           -0.5762612             -15.6809
        28        2.0000           -0.5751630             -15.6510
        29        2.0000           -0.5673509             -15.4384
        30        2.0000           -0.5650895             -15.3769
        31        2.0000           -0.5639440             -15.3457
        32        2.0000           -0.5638255             -15.3425 (HOMO)
        33                         -0.4346031             -11.8262 (LUMO)
        34                         -0.4087938             -11.1238
        35                         -0.3826245             -10.4117
        36                         -0.3824010             -10.4057
        37                         -0.3807461             -10.3606
       ...                                ...                  ...
        67                          0.5078408              13.8191
      -------------------------------------------------------------
                  HL-Gap            0.1292224 Eh            3.5163 eV
             Fermi-level           -0.4992143 Eh          -13.5843 eV

 SCC (total)                   0 d,  0 h,  0 min,  0.004 sec
 SCC setup                      ...        0 min,  0.000 sec (  1.285%)
 Dispersion                     ...        0 min,  0.000 sec (  1.694%)
 classical contributions        ...        0 min,  0.000 sec (  0.243%)
 integral evaluation            ...        0 min,  0.001 sec ( 15.716%)
 iterations                     ...        0 min,  0.002 sec ( 49.105%)
 molecular gradient             ...        0 min,  0.001 sec ( 29.789%)
 printout                       ...        0 min,  0.000 sec (  1.771%)

         :::::::::::::::::::::::::::::::::::::::::::::::::::::
         ::                     SUMMARY                     ::
         :::::::::::::::::::::::::::::::::::::::::::::::::::::
         :: total energy             -34.100494386330 Eh    ::
         :: gradient norm              0.000071826750 Eh/a0 ::
         :: HOMO-LUMO gap              3.516320368699 eV    ::
         ::.................................................::
         :: SCC energy               -34.711293553336 Eh    ::
         :: -> isotropic ES            0.071078327509 Eh    ::
         :: -> anisotropic ES         -0.012377501676 Eh    ::
         :: -> anisotropic XC          0.024573891313 Eh    ::
         :: -> dispersion             -0.022346829840 Eh    ::
         :: repulsion energy           0.610569926622 Eh    ::
         :: add. restraining           0.000075472196 Eh    ::
         :: total charge               1.000000000000 e     ::
         :::::::::::::::::::::::::::::::::::::::::::::::::::::

========================================================================
 RELAXED SCAN
------------------------------------------------------------------------
 output written to xtbscan.log
 scaning constraint 1
... step 1 ...
 current energy:         -34.04080532
    bias energy:           0.00000021
unbiased energy:         -34.04080553
... step 2 ...
 current energy:         -34.04080679
    bias energy:           0.00000014
unbiased energy:         -34.04080693
... step 3 ...
 current energy:         -34.04080201
    bias energy:           0.00000046
unbiased energy:         -34.04080247
... step 4 ...
 current energy:         -34.04079691
    bias energy:           0.00000047
unbiased energy:         -34.04079738
... step 5 ...
 current energy:         -34.04079156
    bias energy:           0.00000047
unbiased energy:         -34.04079204
... step 6 ...
 current energy:         -34.04078602
    bias energy:           0.00000048
unbiased energy:         -34.04078650
... step 7 ...
 current energy:         -34.04078033
    bias energy:           0.00000048
unbiased energy:         -34.04078082
... step 8 ...
 current energy:         -34.04077452
    bias energy:           0.00000048
unbiased energy:         -34.04077501
... step 9 ...
 current energy:         -34.04076862
    bias energy:           0.00000048
unbiased energy:         -34.04076910
... step 10 ...
 current energy:         -34.04076264
    bias energy:           0.00000045
unbiased energy:         -34.04076309
... step 11 ...
 current energy:         -34.04075661
    bias energy:           0.00000045
unbiased energy:         -34.04075706
... step 12 ...
 current energy:         -34.04075054
    bias energy:           0.00000045
unbiased energy:         -34.04075099
... step 13 ...
 current energy:         -34.04074446
    bias energy:           0.00000045
unbiased energy:         -34.04074491
... step 14 ...
 current energy:         -34.04073838
    bias energy:           0.00000044
unbiased energy:         -34.04073882
... step 15 ...
 current energy:         -34.04073230
    bias energy:           0.00000044
unbiased energy:         -34.04073274
... step 16 ...
 current energy:         -34.04072625
    bias energy:           0.00000046
unbiased energy:         -34.04072671
... step 17 ...
 current energy:         -34.04072024
    bias energy:           0.00000045
unbiased energy:         -34.04072069
... step 18 ...
 current energy:         -34.04071427
    bias energy:           0.00000045
unbiased energy:         -34.04071472
... step 19 ...
 current energy:         -34.04070836
    bias energy:           0.00000044
unbiased energy:         -34.04070880
... step 20 ...
 current energy:         -34.04070251
    bias energy:           0.00000044
unbiased energy:         -34.04070294
... step 21 ...
 current energy:         -34.04069673
    bias energy:           0.00000043
unbiased energy:         -34.04069716
... step 22 ...
 current energy:         -34.04069102
    bias energy:           0.00000042
unbiased energy:         -34.04069145
... step 23 ...
 current energy:         -34.04068539
    bias energy:           0.00000042
unbiased energy:         -34.04068581
... step 24 ...
 current energy:         -34.04067985
    bias energy:           0.00000041
unbiased energy:         -34.04068026
... step 25 ...
 current energy:         -34.04067439
    bias energy:           0.00000041
unbiased energy:         -34.04067480
... step 26 ...
 current energy:         -34.04066903
    bias energy:           0.00000040
unbiased energy:         -34.04066943
... step 27 ...
 current energy:         -34.04066376
    bias energy:           0.00000040
unbiased energy:         -34.04066416
... step 28 ...
 current energy:         -34.04065858
    bias energy:           0.00000039
unbiased energy:         -34.04065898
... step 29 ...
 current energy:         -34.04065351
    bias energy:           0.00000039
unbiased energy:         -34.04065390
... step 30 ...
 current energy:         -34.04064853
    bias energy:           0.00000038
unbiased energy:         -34.04064892
... step 31 ...
 current energy:         -34.04064366
    bias energy:           0.00000038
unbiased energy:         -34.04064404
... step 32 ...
 current energy:         -34.04063888
    bias energy:           0.00000037
unbiased energy:         -34.04063926
... step 33 ...
 current energy:         -34.04063421
    bias energy:           0.00000037
unbiased energy:         -34.04063458
... step 34 ...
 current energy:         -34.04062964
    bias energy:           0.00000036
unbiased energy:         -34.04063001
... step 35 ...
 current energy:         -34.04062518
    bias energy:           0.00000036
unbiased energy:         -34.04062554
... step 36 ...
 current energy:         -34.04062081
    bias energy:           0.00000036
unbiased energy:         -34.04062117
... step 37 ...
 current energy:         -34.04061655
    bias energy:           0.00000035
unbiased energy:         -34.04061690
... step 38 ...
 current energy:         -34.04061239
    bias energy:           0.00000035
unbiased energy:         -34.04061274
... step 39 ...
 current energy:         -34.04060833
    bias energy:           0.00000034
unbiased energy:         -34.04060867
... step 40 ...
 current energy:         -34.04060436
    bias energy:           0.00000034
unbiased energy:         -34.04060470
... step 41 ...
 current energy:         -34.04060050
    bias energy:           0.00000034
unbiased energy:         -34.04060084
... step 42 ...
 current energy:         -34.04059673
    bias energy:           0.00000033
unbiased energy:         -34.04059707
... step 43 ...
 current energy:         -34.04059306
    bias energy:           0.00000033
unbiased energy:         -34.04059339
... step 44 ...
 current energy:         -34.04058949
    bias energy:           0.00000033
unbiased energy:         -34.04058982
... step 45 ...
 current energy:         -34.04058601
    bias energy:           0.00000032
unbiased energy:         -34.04058633
... step 46 ...
 current energy:         -34.04058262
    bias energy:           0.00000032
unbiased energy:         -34.04058294
... step 47 ...
 current energy:         -34.04057932
    bias energy:           0.00000032
unbiased energy:         -34.04057964
... step 48 ...
 current energy:         -34.04057611
    bias energy:           0.00000032
unbiased energy:         -34.04057643
... step 49 ...
 current energy:         -34.04057299
    bias energy:           0.00000031
unbiased energy:         -34.04057331
... step 50 ...
 current energy:         -34.04056996
    bias energy:           0.00000031
unbiased energy:         -34.04057027
... step 51 ...
 current energy:         -34.04056701
    bias energy:           0.00000031
unbiased energy:         -34.04056732
... step 52 ...
 current energy:         -34.04056415
    bias energy:           0.00000031
unbiased energy:         -34.04056446
... step 53 ...
 current energy:         -34.04056138
    bias energy:           0.00000031
unbiased energy:         -34.04056169
... step 54 ...
 current energy:         -34.04055869
    bias energy:           0.00000030
unbiased energy:         -34.04055899
... step 55 ...
 current energy:         -34.04055608
    bias energy:           0.00000030
unbiased energy:         -34.04055639
... step 56 ...
 current energy:         -34.04055356
    bias energy:           0.00000030
unbiased energy:         -34.04055386
... step 57 ...
 current energy:         -34.04055112
    bias energy:           0.00000030
unbiased energy:         -34.04055142
... step 58 ...
 current energy:         -34.04054876
    bias energy:           0.00000030
unbiased energy:         -34.04054905
... step 59 ...
 current energy:         -34.04054648
    bias energy:           0.00000030
unbiased energy:         -34.04054678
... step 60 ...
 current energy:         -34.04054428
    bias energy:           0.00000029
unbiased energy:         -34.04054458
... step 61 ...
 current energy:         -34.04054217
    bias energy:           0.00000029
unbiased energy:         -34.04054246
... step 62 ...
 current energy:         -34.04053925
    bias energy:           0.00000033
unbiased energy:         -34.04053958
... step 63 ...
 current energy:         -34.04053821
    bias energy:           0.00000017
unbiased energy:         -34.04053839
... step 64 ...
 current energy:         -34.04053634
    bias energy:           0.00000028
unbiased energy:         -34.04053662
... step 65 ...
 current energy:         -34.04053363
    bias energy:           0.00000030
unbiased energy:         -34.04053393
... step 66 ...
 current energy:         -34.04053287
    bias energy:           0.00000017
unbiased energy:         -34.04053304
... step 67 ...
 current energy:         -34.04053126
    bias energy:           0.00000027
unbiased energy:         -34.04053153
... step 68 ...
 current energy:         -34.04052874
    bias energy:           0.00000024
unbiased energy:         -34.04052899
... step 69 ...
 current energy:         -34.04052903
    bias energy:           0.00000017
unbiased energy:         -34.04052919
... step 70 ...
 current energy:         -34.04052751
    bias energy:           0.00000026
unbiased energy:         -34.04052777
... step 71 ...
 current energy:         -34.04052615
    bias energy:           0.00000026
unbiased energy:         -34.04052641
... step 72 ...
 current energy:         -34.04052567
    bias energy:           0.00000016
unbiased energy:         -34.04052582
... step 73 ...
 current energy:         -34.04052438
    bias energy:           0.00000025
unbiased energy:         -34.04052462
... step 74 ...
 current energy:         -34.04052228
    bias energy:           0.00000021
unbiased energy:         -34.04052248
... step 75 ...
 current energy:         -34.04052291
    bias energy:           0.00000014
unbiased energy:         -34.04052305
... step 76 ...
 current energy:         -34.04052188
    bias energy:           0.00000023
unbiased energy:         -34.04052211
... step 77 ...
 current energy:         -34.04052179
    bias energy:           0.00000014
unbiased energy:         -34.04052193
... step 78 ...
 current energy:         -34.04052093
    bias energy:           0.00000022
unbiased energy:         -34.04052115
... step 79 ...
 current energy:         -34.04052024
    bias energy:           0.00000022
unbiased energy:         -34.04052046
... step 80 ...
 current energy:         -34.04052049
    bias energy:           0.00000013
unbiased energy:         -34.04052062
... step 81 ...
 current energy:         -34.04051995
    bias energy:           0.00000021
unbiased energy:         -34.04052016
... step 82 ...
 current energy:         -34.04052035
    bias energy:           0.00000012
unbiased energy:         -34.04052047
... step 83 ...
 current energy:         -34.04052000
    bias energy:           0.00000020
unbiased energy:         -34.04052019
... step 84 ...
 current energy:         -34.04052059
    bias energy:           0.00000011
unbiased energy:         -34.04052070
... step 85 ...
 current energy:         -34.04052044
    bias energy:           0.00000019
unbiased energy:         -34.04052062
... step 86 ...
 current energy:         -34.04052124
    bias energy:           0.00000010
unbiased energy:         -34.04052135
... step 87 ...
 current energy:         -34.04052131
    bias energy:           0.00000018
unbiased energy:         -34.04052148
... step 88 ...
 current energy:         -34.04052234
    bias energy:           0.00000009
unbiased energy:         -34.04052243
... step 89 ...
 current energy:         -34.04052355
    bias energy:           0.00000010
unbiased energy:         -34.04052364
... step 90 ...
 current energy:         -34.04052387
    bias energy:           0.00000015
unbiased energy:         -34.04052402
... step 91 ...
 current energy:         -34.04052438
    bias energy:           0.00000015
unbiased energy:         -34.04052453
... step 92 ...
 current energy:         -34.04052588
    bias energy:           0.00000008
unbiased energy:         -34.04052596
... step 93 ...
 current energy:         -34.04052662
    bias energy:           0.00000014
unbiased energy:         -34.04052677
... step 94 ...
 current energy:         -34.04052834
    bias energy:           0.00000007
unbiased energy:         -34.04052842
... step 95 ...
 current energy:         -34.04052932
    bias energy:           0.00000013
unbiased energy:         -34.04052945
... step 96 ...
 current energy:         -34.04053127
    bias energy:           0.00000006
unbiased energy:         -34.04053133
... step 97 ...
 current energy:         -34.04053247
    bias energy:           0.00000012
unbiased energy:         -34.04053259
... step 98 ...
 current energy:         -34.04053464
    bias energy:           0.00000006
unbiased energy:         -34.04053470
... step 99 ...
 current energy:         -34.04053607
    bias energy:           0.00000011
unbiased energy:         -34.04053618
... step 100 ...
 current energy:         -34.04053846
    bias energy:           0.00000005
unbiased energy:         -34.04053851
... step 101 ...
 current energy:         -34.04054011
    bias energy:           0.00000010
unbiased energy:         -34.04054021
... step 102 ...
 current energy:         -34.04054271
    bias energy:           0.00000004
unbiased energy:         -34.04054276
... step 103 ...
 current energy:         -34.04054457
    bias energy:           0.00000009
unbiased energy:         -34.04054466
... step 104 ...
 current energy:         -34.04054739
    bias energy:           0.00000004
unbiased energy:         -34.04054742
... step 105 ...
 current energy:         -34.04054945
    bias energy:           0.00000008
unbiased energy:         -34.04054953
... step 106 ...
 current energy:         -34.04055246
    bias energy:           0.00000003
unbiased energy:         -34.04055249
... step 107 ...
 current energy:         -34.04055473
    bias energy:           0.00000007
unbiased energy:         -34.04055480
... step 108 ...
 current energy:         -34.04055792
    bias energy:           0.00000003
unbiased energy:         -34.04055795
... step 109 ...
 current energy:         -34.04056037
    bias energy:           0.00000007
unbiased energy:         -34.04056044
... step 110 ...
 current energy:         -34.04056300
    bias energy:           0.00000007
unbiased energy:         -34.04056306
... step 111 ...
 current energy:         -34.04056655
    bias energy:           0.00000002
unbiased energy:         -34.04056657
... step 112 ...
 current energy:         -34.04056931
    bias energy:           0.00000006
unbiased energy:         -34.04056937
... step 113 ...
 current energy:         -34.04057223
    bias energy:           0.00000006
unbiased energy:         -34.04057229
... step 114 ...
 current energy:         -34.04057605
    bias energy:           0.00000002
unbiased energy:         -34.04057607
... step 115 ...
 current energy:         -34.04057908
    bias energy:           0.00000004
unbiased energy:         -34.04057912
... step 116 ...
 current energy:         -34.04058146
    bias energy:           0.00000004
unbiased energy:         -34.04058151
... step 117 ...
 current energy:         -34.04058624
    bias energy:           0.00000001
unbiased energy:         -34.04058625
... step 118 ...
 current energy:         -34.04058947
    bias energy:           0.00000004
unbiased energy:         -34.04058951
... step 119 ...
 current energy:         -34.04059286
    bias energy:           0.00000004
unbiased energy:         -34.04059290
... step 120 ...
 current energy:         -34.04059635
    bias energy:           0.00000004
unbiased energy:         -34.04059638
... step 121 ...
 current energy:         -34.04059993
    bias energy:           0.00000004
unbiased energy:         -34.04059997
... step 122 ...
 current energy:         -34.04060360
    bias energy:           0.00000004
unbiased energy:         -34.04060364
... step 123 ...
 current energy:         -34.04060735
    bias energy:           0.00000003
unbiased energy:         -34.04060738
... step 124 ...
 current energy:         -34.04061116
    bias energy:           0.00000003
unbiased energy:         -34.04061119
... step 125 ...
 current energy:         -34.04061502
    bias energy:           0.00000003
unbiased energy:         -34.04061505
... step 126 ...
 current energy:         -34.04061894
    bias energy:           0.00000003
unbiased energy:         -34.04061897
... step 127 ...
 current energy:         -34.04062290
    bias energy:           0.00000003
unbiased energy:         -34.04062293
... step 128 ...
 current energy:         -34.04062690
    bias energy:           0.00000003
unbiased energy:         -34.04062693
... step 129 ...
 current energy:         -34.04063094
    bias energy:           0.00000002
unbiased energy:         -34.04063096
... step 130 ...
 current energy:         -34.04063500
    bias energy:           0.00000002
unbiased energy:         -34.04063502
... step 131 ...
 current energy:         -34.04063909
    bias energy:           0.00000002
unbiased energy:         -34.04063911
... step 132 ...
 current energy:         -34.04064320
    bias energy:           0.00000002
unbiased energy:         -34.04064322
... step 133 ...
 current energy:         -34.04064732
    bias energy:           0.00000002
unbiased energy:         -34.04064734
... step 134 ...
 current energy:         -34.04065076
    bias energy:           0.00000002
unbiased energy:         -34.04065078
... step 135 ...
 current energy:         -34.04065555
    bias energy:           0.00000000
unbiased energy:         -34.04065555
... step 136 ...
 current energy:         -34.04065970
    bias energy:           0.00000001
unbiased energy:         -34.04065971
... step 137 ...
 current energy:         -34.04066385
    bias energy:           0.00000002
unbiased energy:         -34.04066387
... step 138 ...
 current energy:         -34.04066734
    bias energy:           0.00000002
unbiased energy:         -34.04066736
... step 139 ...
 current energy:         -34.04067212
    bias energy:           0.00000000
unbiased energy:         -34.04067212
... step 140 ...
 current energy:         -34.04067627
    bias energy:           0.00000001
unbiased energy:         -34.04067627
... step 141 ...
 current energy:         -34.04068040
    bias energy:           0.00000001
unbiased energy:         -34.04068041
... step 142 ...
 current energy:         -34.04068453
    bias energy:           0.00000001
unbiased energy:         -34.04068454
... step 143 ...
 current energy:         -34.04068863
    bias energy:           0.00000001
unbiased energy:         -34.04068864
... step 144 ...
 current energy:         -34.04069271
    bias energy:           0.00000001
unbiased energy:         -34.04069272
... step 145 ...
 current energy:         -34.04069605
    bias energy:           0.00000004
unbiased energy:         -34.04069609
... step 146 ...
 current energy:         -34.04069952
    bias energy:           0.00000004
unbiased energy:         -34.04069956
... step 147 ...
 current energy:         -34.04070388
    bias energy:           0.00000000
unbiased energy:         -34.04070388
... step 148 ...
 current energy:         -34.04070804
    bias energy:           0.00000001
unbiased energy:         -34.04070805
... step 149 ...
 current energy:         -34.04071214
    bias energy:           0.00000001
unbiased energy:         -34.04071215
... step 150 ...
 current energy:         -34.04071546
    bias energy:           0.00000004
unbiased energy:         -34.04071550
... step 151 ...
 current energy:         -34.04071888
    bias energy:           0.00000004
unbiased energy:         -34.04071892
... step 152 ...
 current energy:         -34.04072231
    bias energy:           0.00000004
unbiased energy:         -34.04072235
... step 153 ...
 current energy:         -34.04072661
    bias energy:           0.00000000
unbiased energy:         -34.04072662
... step 154 ...
 current energy:         -34.04073065
    bias energy:           0.00000001
unbiased energy:         -34.04073066
... step 155 ...
 current energy:         -34.04073390
    bias energy:           0.00000004
unbiased energy:         -34.04073394
... step 156 ...
 current energy:         -34.04073722
    bias energy:           0.00000004
unbiased energy:         -34.04073726
... step 157 ...
 current energy:         -34.04074052
    bias energy:           0.00000004
unbiased energy:         -34.04074056
... step 158 ...
 current energy:         -34.04074383
    bias energy:           0.00000004
unbiased energy:         -34.04074387
... step 159 ...
 current energy:         -34.04074712
    bias energy:           0.00000004
unbiased energy:         -34.04074716
... step 160 ...
 current energy:         -34.04075040
    bias energy:           0.00000004
unbiased energy:         -34.04075044
... step 161 ...
 current energy:         -34.04075365
    bias energy:           0.00000003
unbiased energy:         -34.04075368
... step 162 ...
 current energy:         -34.04075686
    bias energy:           0.00000003
unbiased energy:         -34.04075690
... step 163 ...
 current energy:         -34.04076004
    bias energy:           0.00000003
unbiased energy:         -34.04076007
... step 164 ...
 current energy:         -34.04076316
    bias energy:           0.00000003
unbiased energy:         -34.04076319
... step 165 ...
 current energy:         -34.04076624
    bias energy:           0.00000003
unbiased energy:         -34.04076627
... step 166 ...
 current energy:         -34.04076927
    bias energy:           0.00000003
unbiased energy:         -34.04076930
... step 167 ...
recieved SIGTERM, terminating...
external termination of xtb
