23
 energy: -34.040723465838 gnorm: 0.005704730672 xtb: 6.4.1 (afa7bdf)
C        -3.09222042537381   -2.23367380120073    0.93019958446376
C        -2.26316472221164   -1.25812537297107    0.41219770541960
C        -1.00217167658574   -1.03282771316811    0.92841723918776
C        -0.52434721231817   -1.80338583071465    2.00930525364987
C        -1.43664793684042   -2.69373192091636    2.38836695338375
C        -2.66578247637943   -3.03375754911877    2.01112541604900
H        -4.07973417172544   -2.41562395830148    0.53353465241934
H        -2.61139060528257   -0.65335422910110   -0.41494090501198
H        -0.34811616148337   -0.27164025403252    0.53037239413814
H         0.45376229745441   -1.64857401319019    2.42986556121320
H        -3.29158934025906   -3.80049139962522    2.43305107567656
I        -3.94521155393721    1.64412714684263   -2.10963992197746
C        -4.78934121824821    3.10556524179770   -3.37657952714901
C        -4.00897040061536    4.17797163243920   -3.77839880083357
C        -6.10779990412268    2.96473034756911   -3.77947329439390
C        -4.57050966317636    5.13315796467555   -4.60569844929298
H        -2.98379200818681    4.26917234990156   -3.45426688652039
C        -6.65463083708300    3.92842114877487   -4.60676328616394
H        -6.69872802058192    2.12172980551630   -3.45617220669312
C        -5.89007231264301    5.01121718187544   -5.02054074004095
H        -3.97506389922274    5.97366814714779   -4.92653233518211
H        -7.67990968557166    3.83206400041114   -4.92842432739757
H        -6.32226806562703    5.75946107527009   -5.66640515491997
