23
 energy: -34.040709694275 gnorm: 0.005695449033 xtb: 6.5.1 (579679a)
C           -3.08992818955010       -2.23752216951700        0.90785841036560
C           -2.25233872343073       -1.27672014157439        0.37627261440054
C           -0.99976559807755       -1.03691329384395        0.90620096330618
C           -0.53952974461451       -1.77710876123503        2.01558555368192
C           -1.45805907659302       -2.65670047884710        2.40451715620248
C           -2.68109337333075       -3.00724543466191        2.01727676769606
H           -4.07108490417229       -2.43045463790706        0.50075595406733
H           -2.58724787054867       -0.69492873202488       -0.47253479127213
H           -0.33923538474784       -0.28688050369576        0.49781744836080
H            0.43177077301163       -1.61050942098616        2.44726925120761
H           -3.31384189721331       -3.76203839175930        2.45022951109789
I           -3.94161759690035        1.63787695714463       -2.09878360806105
C           -4.78586829149064        3.09950318706936       -3.36551879929796
C           -4.00559454256833        4.17206846326636       -3.76707536547509
C           -6.10439465179673        2.95878284678977       -3.76820427191664
C           -4.56740181989921        5.12770514437142       -4.59367427631904
H           -2.98032641913712        4.26310951604317       -3.44318209825215
C           -6.65149312010976        3.92292538715438       -4.59479232658063
H           -6.69520440257188        2.11559176668671       -3.44518348535781
C           -5.88706997225936        5.00594519917204       -5.00821705956376
H           -3.97207038895277        5.96841270933956       -4.91419780470568
H           -7.67686991957116        3.82672847715092       -4.91618374404603
H           -6.31943488549985        5.75447231187643       -5.65363599953853
23
 energy: -34.040767932899 gnorm: 0.000356951031 xtb: 6.5.1 (579679a)
C           -3.09092897882215       -2.23582606359117        0.91049850406420
C           -2.25505367515808       -1.27202427240125        0.38167412032455
C           -1.00074553410283       -1.03519347205805        0.90881889112801
C           -0.53801171981371       -1.77971203934940        2.01426103185180
C           -1.45545688380162       -2.66120602658682        2.40145716575414
C           -2.67959244454889       -3.00987056273744        2.01597497716886
H           -4.07203800488002       -2.42883294257086        0.50330861529674
H           -2.58987056148418       -0.69041199070438       -0.46729829119394
H           -0.34018616783901       -0.28523790762745        0.50033176797602
H            0.43383291478890       -1.61405658224469        2.44507660738843
H           -3.31178876110817       -3.76561045433215        2.44807529558805
I           -3.94179031203894        1.63817848387212       -2.09934328530042
C           -4.78543552223427        3.09876790982294       -3.36768366705888
C           -4.00543501364261        4.17179963210146       -3.76852759722447
C           -6.10423039564577        2.95851143980522       -3.76965716076924
C           -4.56745746830987        5.12780286436277       -4.59455896278754
H           -2.98034546697939        4.26315371562530       -3.44415897775099
C           -6.65154386929143        3.92302069405909       -4.59567767488978
H           -6.69522023065816        2.11562886980996       -3.44616175656840
C           -5.88718121839418        5.00613986809504       -5.00895145243721
H           -3.97235062456624        5.96889604044918       -4.91448966449194
H           -7.67714292163265        3.82720653322478       -4.91647673726057
H           -6.31972713986103        5.75497626298802       -5.65389174880754
23
 energy: -34.040771370320 gnorm: 0.000351008066 xtb: 6.5.1 (579679a)
C           -3.09068247282384       -2.23624272852094        0.91176735867636
C           -2.25488403399857       -1.27231960861603        0.38303320439302
C           -1.00050627982368       -1.03561912798159        0.91007523073500
C           -0.53674865571734       -1.78191354379915        2.01390093119046
C           -1.45382232627217       -2.66404563668381        2.40054953031125
C           -2.67832423578295       -3.01206407389854        2.01562755574249
H           -4.07322974645184       -2.42674010478103        0.50685454918824
H           -2.59273413677136       -0.68542451282502       -0.46112180001644
H           -0.34138909583344       -0.28315929559503        0.50385532166061
H            0.43579772710087       -1.61747083606636        2.44360464683936
H           -3.30982626635247       -3.76901757118055        2.44662593591275
I           -3.94160184899663        1.63787403603534       -2.10173515096961
C           -4.78626742572678        3.10020271174217       -3.36729565330960
C           -4.00588682693547        4.17258538061524       -3.76913557868921
C           -6.10468729146680        2.95929209942478       -3.77026890680002
C           -4.56765766522907        5.12815383853668       -4.59583524967638
H           -2.98070843962265        4.26378388876796       -3.44500343830877
C           -6.65174870937347        3.92336653915356       -4.59695756096918
H           -6.69558499780210        2.11625338698769       -3.44701238803946
C           -5.88736850834234        5.00646220879582       -5.01026887537007
H           -3.97256414759523        5.96927025338264       -4.91572905277276
H           -7.67736014761628        3.82757375797790       -4.91772225376170
H           -6.31991446859068        5.75529893854045       -5.65520835596643
23
 energy: -34.040772231220 gnorm: 0.000127478258 xtb: 6.5.1 (579679a)
C           -3.09034529163414       -2.23678230939118        0.91237526506037
C           -2.25445768785961       -1.27301992111935        0.38346185272308
C           -1.00017516765299       -1.03617795442351        0.91068796479536
C           -0.53639992473237       -1.78252384438908        2.01445926603415
C           -1.45369188070983       -2.66426623476784        2.40145004418893
C           -2.67796885842168       -3.01265420653113        2.01618124903346
H           -4.07279265112100       -2.42746902986208        0.50733039535248
H           -2.59204724364065       -0.68657189659404       -0.46107417838485
H           -0.34093634042717       -0.28390641913171        0.50433852325022
H            0.43628219117420       -1.61833245681044        2.44395024471010
H           -3.30933194113895       -3.76984559868112        2.44696429929181
I           -3.94245283134376        1.63921819277678       -2.10096975188462
C           -4.78663937415015        3.10079578964619       -3.36778172687079
C           -4.00633508153031        4.17332467680567       -3.76938127930389
C           -6.10514319278022        2.96005098889335       -3.77053732169277
C           -4.56806864773200        5.12886557165168       -4.59614057702295
H           -2.98109212988585        4.26439837137876       -3.44541749930526
C           -6.65216796267337        3.92409739943196       -4.59728569308469
H           -6.69598483936144        2.11690127766942       -3.44746701371266
C           -5.88770640183237        5.00706772579913       -5.01077256833295
H           -3.97270565570605        5.96952986542352       -4.91671993043233
H           -7.67751777824596        3.82786702071100       -4.91875411618766
H           -6.32002130861866        5.75553299152622       -5.65629744822463
