23
 energy: -34.040648335627 gnorm: 0.005848626575 xtb: 6.4.1 (afa7bdf)
C        -3.08418562604578   -2.24789785685007    0.83023942476591
C        -2.21669789541703   -1.33941120706718    0.25649588308847
C        -0.99453058452504   -1.04661821330923    0.82888993727371
C        -0.59706271407858   -1.67713200172047    2.02683845850909
C        -1.53768186290302   -2.51812213870880    2.44684632138658
C        -2.73817438147600   -2.90799856386825    2.02821365403063
H        -4.04198953176256   -2.48178757749583    0.39037290779660
H        -2.50327593801079   -0.84201150757848   -0.66074045517518
H        -0.31082390068931   -0.33688468535387    0.38797985164711
H         0.34965196419960   -1.46748748510466    2.49298317388269
H        -3.39528516646396   -3.62036144953165    2.49539140997600
I        -3.92438130028177    1.60804208340624   -2.06255604417796
C        -4.77051017484769    3.07304103830665   -3.32489524745357
C        -3.99073558190625    4.14645179266477   -3.72513385526793
C        -6.08961944060219    2.93343284945031   -3.72602957927940
C        -4.55395206632382    5.10461701863691   -4.54786698607751
H        -2.96490087843224    4.23650614146366   -3.40277346564536
C        -6.63812919197630    3.90010159639534   -4.54875208504383
H        -6.67999168683633    2.08942321375360   -3.40436095852872
C        -5.87436420839828    4.98424593353052   -4.96036272591638
H        -3.95914296616242    5.94627684318274   -4.86685247620338
H        -7.66414718186021    3.80503286682395   -4.86842317885044
H        -6.30776968509683    5.73464130897477   -5.60290396466599
23
 energy: -34.040710814810 gnorm: 0.000412815426 xtb: 6.4.1 (afa7bdf)
C        -3.08522843444043   -2.24613299430286    0.83264422609942
C        -2.21955593124766   -1.33445264237358    0.26128607495825
C        -0.99553537783173   -1.04483296597052    0.83128054114849
C        -0.59535702574518   -1.68005873202644    2.02582351517367
C        -1.53464651113970   -2.52338755158237    2.44414791134516
C        -2.73649609592826   -2.91093961474267    2.02721319611835
H        -4.04318260840302   -2.47972327003002    0.39292083126454
H        -2.50655169179235   -0.83633287069721   -0.65545613958025
H        -0.31201389299698   -0.33482243349468    0.39050391562465
H         0.35196116255141   -1.47145707796175    2.49120272573899
H        -3.39300712330510   -3.62434553770905    2.49363490033658
I        -3.92464013877747    1.60848110705457   -2.06294827998503
C        -4.76991175712491    3.07201108657724   -3.32756733087836
C        -3.99055176275102    4.14613433377910   -3.72670508326643
C        -6.08943159666924    2.93311392695490   -3.72760271267908
C        -4.55405411037739    5.10479235504384   -4.54866633917574
H        -2.96486089751421    4.23643934380819   -3.40395962840137
C        -6.63822798870860    3.90027510250437   -4.54955338971612
H        -6.67994819314628    2.08935212033994   -3.40555089312016
C        -5.87450841386980    4.98449515429165   -4.96104868226790
H        -3.95944038892836    5.94678740856854   -4.86713072578971
H        -7.66443863232720    3.80554031710840   -4.86870499963382
H        -6.30807258942332    5.73516343486141   -5.60316363324302
23
 energy: -34.040714468686 gnorm: 0.000384674570 xtb: 6.4.1 (afa7bdf)
C        -3.08496314116418   -2.24657459400547    0.83396335442959
C        -2.21937376002134   -1.33475923791584    0.26269701093941
C        -0.99527316082286   -1.04529242663940    0.83259241427407
C        -0.59394914518072   -1.68252427305315    2.02569851399381
C        -1.53270347469128   -2.52676469904532    2.44337282028288
C        -2.73507655276491   -2.91338198933172    2.02709545843322
H        -4.04456002797181   -2.47729278753732    0.39628844813829
H        -2.50985609242415   -0.83056542875538   -0.64967715945424
H        -0.31339902238761   -0.33242496108429    0.39385911128008
H         0.35411972045788   -1.47522547437983    2.49014205641591
H        -3.39084617806599   -3.62808384634274    2.49258685267115
I        -3.92434546706016    1.60797666735727   -2.06579461590145
C        -4.77088721010294    3.07368878263203   -3.32691873567864
C        -3.99104438115106    4.14697993996721   -3.72732693363294
C        -6.08992449281720    2.93395838459543   -3.72823070049684
C        -4.55424347387167    5.10511803494123   -4.55009725943717
H        -2.96527467556589    4.23714199208183   -3.40478993724475
C        -6.63841884825830    3.90059879379761   -4.55099021293653
H        -6.68035665621005    2.09005566781256   -3.40639165923308
C        -5.87468870317639    4.98480438327678   -4.96250420234674
H        -3.95968691116720    5.94721402963386   -4.86839929389113
H        -7.66468704514852    3.80596351847809   -4.86998378590489
H        -6.30826130033044    5.73548952351757   -5.60459154462888
23
 energy: -34.040715456077 gnorm: 0.000149408969 xtb: 6.4.1 (afa7bdf)
C        -3.08460415665775   -2.24716328723817    0.83450329441792
C        -2.21889150281060   -1.33556983806678    0.26303426339394
C        -0.99492015468398   -1.04590571212886    0.83313865278770
C        -0.59363470586007   -1.68308733791922    2.02627774868278
C        -1.53262405962937   -2.52691234374598    2.44422647818168
C        -2.73475981854277   -2.91392184568053    2.02766840535579
H        -4.04409068910201   -2.47808806679956    0.39672436690645
H        -2.50905532832773   -0.83191902085894   -0.64969497573687
H        -0.31291070690167   -0.33324701168051    0.39430568585007
H         0.35454241312015   -1.47599624621493    2.49059277030602
H        -3.39041747110822   -3.62881308603187    2.49302700886154
I        -3.92527604709563    1.60956634097676   -2.06472575909473
C        -4.77115146679396    3.07414071783840   -3.32765567410174
C        -3.99147419041132    4.14771792825851   -3.72761563716623
C        -6.09035273651884    2.93469401240356   -3.72852207749659
C        -4.55470511301538    5.10591047421147   -4.55030346744012
H        -2.96561536507401    4.23772468074347   -3.40531757727509
C        -6.63887821279339    3.90138935540437   -4.55119927692637
H        -6.68069363748663    2.09063490446416   -3.40692442438544
C        -5.87507441335676    4.98546651357132   -4.96291205683521
H        -3.95985328856507    5.94749660634034   -4.86939863552315
H        -7.66485057936994    3.80624240408496   -4.87098854844272
H        -6.30840876891184    5.73573985806904   -5.60564056424853
