23
 energy: -34.040805433955 xtb: 6.4.1 (afa7bdf)
C        -3.08785036615871   -2.24535999229419    0.19843048333767
C        -1.91189099781635   -1.87215823823049   -0.42188683710524
C        -1.00003348464854   -1.03993771179829    0.19688230034743
C        -1.25081912266242   -0.54274078700423    1.49348490439605
C        -2.41673309279806   -0.99471821518369    1.94138574625213
C        -3.39160222266596   -1.77874314506760    1.49507266774314
H        -3.80668131637754   -2.89699516476199   -0.27534351144621
H        -1.69902573228794   -2.24212219341567   -1.41478292366033
H        -0.07681738645433   -0.74352107903246   -0.27811034549236
H        -0.55712779107695    0.10588370856439    1.99851461238555
H        -4.29960610603312   -2.05487085112987    2.00129251363314
I        -3.77986512709196    1.36166439212964   -1.35586768686493
C        -4.59252010058135    2.76752523865853   -2.71424668480264
C        -3.80079629760324    3.81901370220055   -3.14632341642766
C        -5.89911320642165    2.60675338651247   -3.14565519124798
C        -4.33771119187602    4.73099867484013   -4.03677860941511
H        -2.78558275230339    3.92816674640603   -2.79750670266566
C        -6.42140479907314    3.52718172224746   -4.03611998802772
H        -6.50061020986539    1.78187635010895   -2.79633115551593
C        -5.64454512558350    4.58751413821368   -4.48287430291576
H        -3.73252085691765    5.55470922386601   -4.38192442431057
H        -7.43745518111601    3.41425415553530   -4.38074934024539
H        -6.05738753260828    5.30172593851657   -5.17796210792796
23
 energy: -34.040806952887 xtb: 6.4.1 (afa7bdf)
C        -3.08544588900336   -2.24954335668797    0.20765258707006
C        -1.91064201749245   -1.87431881590341   -0.41362458703771
C        -0.99760859901113   -1.04410435815214    0.20609853926642
C        -1.24598023366692   -0.55113321900082    1.50477317843117
C        -2.41094183930617   -1.00474103315565    1.95360318029553
C        -3.38674458528150   -1.78712975858576    1.50636653855393
H        -3.80516799292767   -2.89956711907248   -0.26697337363825
H        -1.69975601311129   -2.24085862244834   -1.40821285059007
H        -0.07534633992123   -0.74610841129516   -0.26974962240605
H        -0.55132714182250    0.09583179891906    2.01062567785612
H        -4.29378953376126   -2.06492404753607    2.01341005965491
I        -3.77263958398626    1.34908176626624   -1.38933430734380
C        -4.59159370350839    2.76593430357278   -2.73253486184781
C        -3.80188988171755    3.82090211270865   -3.15987804426834
C        -5.90018782298937    2.60863648028940   -3.15920639676199
C        -4.34300612703815    4.74016227802486   -4.04025817859491
H        -2.78497970990499    3.92715258561853   -2.81513840504509
C        -6.42669180258570    3.53633948856359   -4.03959139995568
H        -6.50001442424982    1.78083940709592   -2.81395032089819
C        -5.65199476232153    4.60040721469956   -4.48121662593067
H        -3.73943921666080    5.56667607669481   -4.38153796990781
H        -7.44435719592144    3.42620856677303   -4.38035323593380
H        -6.06815558383190    5.32035666249234   -5.16836958094409
23
 energy: -34.040802509708 xtb: 6.4.1 (afa7bdf)
C        -3.08672624680314   -2.24726466183839    0.20987477599782
C        -1.91377697200997   -1.86888990086858   -0.41306194461408
C        -0.99894058555498   -1.04185583868071    0.20832077453836
C        -1.24341844061420   -0.55559449204911    1.51025440919690
C        -2.40727749137106   -1.01108060171705    1.96003241143591
C        -3.38415689268899   -1.79157583562066    1.51184769645366
H        -3.80773098250478   -2.89513015046127   -0.26571601692542
H        -1.70545205979115   -2.23099645988375   -1.40973794062909
H        -0.07790726998014   -0.74167058146928   -0.26849230195847
H        -0.54716743230738    0.08860434221422    2.01745272541057
H        -4.28960340828615   -2.07213580321650    2.02023768469784
I        -3.76848813677601    1.34192476793221   -1.40280369998535
C        -4.59003151679273    2.76321729054097   -2.73948356984004
C        -3.80121189066769    3.81970693649237   -3.16472408566456
C        -5.89950134887905    2.60745070025952   -3.16405566651847
C        -4.34405804646887    4.74196929604807   -4.04089083272848
H        -2.78361379267138    3.92478502457756   -2.82165469200075
C        -6.42773665134632    3.53815447268860   -4.04022715602942
H        -6.49865850926773    1.77847243837234   -2.82047176535057
C        -5.65387038418188    4.60365339806838   -4.47984879911036
H        -3.74109829969805    5.56952189026484   -4.38072492298903
H        -7.44599748682289    3.42907101970981   -4.37954520595198
H        -6.07127615453670    5.32576274851732   -5.16398187741108
23
 energy: -34.040797416442 xtb: 6.4.1 (afa7bdf)
C        -3.08780197877349   -2.24541705339654    0.21234540808731
C        -1.91674539213975   -1.86374874817907   -0.41214843638027
C        -1.00000105490056   -1.03999960187677    0.21079118756796
C        -1.24054340434139   -0.56057190723805    1.51598410665043
C        -2.40300374999777   -1.01847481715577    1.96697210355201
C        -3.38127826927082   -1.79655106004542    1.51757757778052
H        -3.81025606711104   -2.89073621560379   -0.26449457944131
H        -1.71143862263155   -2.22063126419701   -1.41132266577244
H        -0.08044975505037   -0.73728691205648   -0.26727123883864
H        -0.54279443171432    0.08103971591051    2.02440936719427
H        -4.28523167020129   -2.07970103633199    2.02719471760223
I        -3.76501121895447    1.33590884610973   -1.41522380839147
C        -4.58880380217098    2.76108496088864   -2.74628870718130
C        -3.80070921187519    3.81884903430871   -3.16972484847111
C        -5.89901457863459    2.60658480058259   -3.16905754840791
C        -4.34512602488468    4.74383236269633   -4.04202984427540
H        -2.78248360324125    3.92282024660048   -2.82818167970715
C        -6.42881962562529    3.54000991251466   -4.04136722850303
H        -6.49752752632786    1.77650980824372   -2.82700057434044
C        -5.65575423963811    4.60691364715104   -4.47899967145233
H        -3.74278433878556    5.57245172259891   -4.38035546549807
H        -7.44769498767756    3.43199580413562   -4.37917747839359
H        -6.07442644607347    5.33121775422087   -5.16003069335637
23
 energy: -34.040792068563 xtb: 6.4.1 (afa7bdf)
C        -3.08875283421457   -2.24377769832468    0.21493223709784
C        -1.91960775970975   -1.85879102262433   -0.41111279225683
C        -1.00094344295828   -1.03835546553387    0.21337781412508
C        -1.23748522008512   -0.56586590206116    1.52182239819236
C        -2.39855327709564   -1.02617483730224    1.97398122988567
C        -3.37821680532802   -1.80184308425323    1.52341608507239
H        -3.81268707138613   -2.88651043339981   -0.26314651363059
H        -1.71738533276521   -2.21033484143561   -1.41279929116245
H        -0.08289347275804   -0.73306862350643   -0.26592352984209
H        -0.53819273799938    0.07307365778427    2.03149766565941
H        -4.28062635311195   -2.08766491954897    2.03428342904463
I        -3.76193510341083    1.33057990630160   -1.42714535050902
C        -4.58780319404789    2.75934727818635   -2.75298180346866
C        -3.80039617192236    3.81831257478582   -3.17470764742191
C        -5.89871025719595    2.60604366811795   -3.17404091487745
C        -4.34627478667526    4.74582996268254   -4.04339400470227
H        -2.78158197024330    3.92125083771391   -2.83460751300242
C        -6.42997824339485    3.54200213075963   -4.04273193500226
H        -6.49662323724286    1.77494243836332   -2.83342735762796
C        -5.65765495809086    4.61020288635412   -4.47851627587778
H        -3.74449607797392    5.57542155853789   -4.38033456891856
H        -7.44941388787996    3.43496197327678   -4.37915750499217
H        -6.07748780453118    5.33651795500708   -5.15668385576114
23
 energy: -34.040786529768 xtb: 6.4.1 (afa7bdf)
C        -3.08960855505997   -2.24230196094545    0.21759849415990
C        -1.92239477773967   -1.85396359208155   -0.40998715889499
C        -1.00179152601298   -1.03687541850421    0.21604386078341
C        -1.23429065456950   -0.57139767969892    1.52771639350965
C        -2.39395766196923   -1.03412610196580    1.98103689662055
C        -3.37501745862581   -1.80737202891266    1.52931029945514
H        -3.81503420600031   -2.88242862088409   -0.26170676949658
H        -1.72328495100361   -2.20011974689113   -1.41416473026758
H        -0.08525425165075   -0.72899484726026   -0.26448414792427
H        -0.53343366341662    0.06483340804759    2.03863675325790
H        -4.27586213185705   -2.09590211252858    2.04142292727417
I        -3.75918524679084    1.32581344148948   -1.43862284745275
C        -4.58699534025173    2.75794380608727   -2.75953093873151
C        -3.80023065600735    3.81803020125067   -3.17965459579188
C        -5.89855192097972    2.60575723539762   -3.17898824688857
C        -4.34747125161188    4.74790891650733   -4.04494664518991
H        -2.78086786895231    3.92000732743216   -2.84090933566561
C        -6.43118337741263    3.54407615010278   -4.04428494885000
H        -6.49590702111051    1.77370026924870   -2.83972984427245
C        -5.65955183912833    4.61348532436469   -4.47833714885750
H        -3.74621807162887    5.57840762421655   -4.38058748233959
H        -7.45114165774626    3.43794480716136   -4.37941107174886
H        -6.08046591049539    5.34167359824732   -5.15381971266492
23
 energy: -34.040780839037 xtb: 6.4.1 (afa7bdf)
C        -3.09039682164862   -2.24093972826873    0.22031333764461
C        -1.92513438197874   -1.84921811119606   -0.40879999279654
C        -1.00257489169946   -1.03551047878803    0.21875850308771
C        -1.23099751404240   -0.57711615089208    1.53362734874469
C        -2.38924859798899   -1.04227375479483    1.98811610462707
C        -3.37170563291475   -1.81307961555292    1.53522145189991
H        -3.81732581117486   -2.87843916871688   -0.26020542036256
H        -1.72916448482143   -2.18993923586776   -1.41544603110205
H        -0.08756263760434   -0.72501528849070   -0.26298314231329
H        -0.52855987042611    0.05637806327129    2.04578475672158
H        -4.27096892804334   -2.10434611784635    2.04857130582241
I        -3.75668733695379    1.32148243336682   -1.44966527794433
C        -4.58634032050742    2.75680508111771   -2.76592897804843
C        -3.80018097721011    3.81794554370536   -3.18455097244003
C        -5.89850687652632    2.60566991815554   -3.18388495632654
C        -4.34869535255398    4.75003387286249   -4.04664664792962
H        -2.78030528248201    3.91902420705279   -2.84708072385676
C        -6.43241457194805    3.54619702076725   -4.04598527917237
H        -6.49534051096938    1.77271943915945   -2.84590181931837
C        -5.66143117696797    4.61673726301889   -4.47840684918229
H        -3.74793742443514    5.58138490043932   -4.38106145599998
H        -7.45286318796911    3.44092084312374   -4.37988562664981
H        -6.08335740915503    5.34667906425457   -5.15135963508121
23
 energy: -34.040775024503 xtb: 6.4.1 (afa7bdf)
C        -3.09113896565827   -2.23966056717462    0.22305588003712
C        -1.92784182645559   -1.84452818432629   -0.40756909788420
C        -1.00330925546796   -1.03422698197900    0.22150086261083
C        -1.22761254610795   -0.58296923082158    1.53954047881076
C        -2.38444117790901   -1.05059172403975    1.99515890551297
C        -3.36832308667898   -1.81893396065670    1.54113477668793
H        -3.81958460173705   -2.87451041320710   -0.25866619144881
H        -1.73503997317318   -2.17976554889521   -1.41666021480603
H        -0.08983471792279   -0.72109447528386   -0.26144422366796
H        -0.52358052512900    0.04776309528312    2.05292216712963
H        -4.26599023125539   -2.11296126259597    2.05570907273313
I        -3.75445065271719    1.31760346477107   -1.46033570934943
C        -4.58581059418029    2.75588329479930   -2.77218753306854
C        -3.80021745347320    3.81801168635788   -3.18937921212170
C        -5.89854941232827    2.60573257900166   -3.18871352350477
C        -4.34992950174452    4.75217630166886   -4.04845483351121
H        -2.77986038542755    3.91824938802204   -2.85311385876461
C        -6.43365593658196    3.54833529790329   -4.04779378910017
H        -6.49489562044060    1.77194465232026   -2.85193553632799
C        -5.66327991654519    4.61993613229598   -4.47867705696916
H        -3.74963348281723    5.58432582338911   -4.38171100240693
H        -7.45456494677490    3.44385850382051   -4.38053575018906
H        -6.08615518949524    5.35152212922791   -5.14924461037801
23
 energy: -34.040769114619 xtb: 6.4.1 (afa7bdf)
C        -3.09184272777127   -2.23844083111936    0.22581731670221
C        -1.93053071280757   -1.83987026638392   -0.40630540205495
C        -1.00401122923725   -1.03300641657982    0.22426214379447
C        -1.22416810044219   -0.58895247364787    1.54543240329373
C        -2.37955595647563   -1.05904440377841    2.00218109752024
C        -3.36485753110966   -1.82490483430985    1.54702685214744
H        -3.82181736690342   -2.87062164379987   -0.25708964257862
H        -1.74092042142732   -2.16958309433338   -1.41781432509322
H        -0.09208502475041   -0.71721618831876   -0.25986793994851
H        -0.51852903982066    0.03899307126175    2.06003062498355
H        -4.26091332651138   -2.12171632597926    2.06281782283956
I        -3.75238955569151    1.31402844985438   -1.47059427310958
C        -4.58538986836025    2.75515021755449   -2.77829593684654
C        -3.80033586122318    3.81821163041129   -3.19414503250519
C        -5.89866694405506    2.60593306770519   -3.19347968012203
C        -4.35117327811117    4.75432990917998   -4.05036537742738
H        -2.77952638533097    3.91765796902742   -2.85901801754167
C        -6.43490224288026    3.55048748090122   -4.04970466582589
H        -6.49455421062517    1.77135758851428   -2.85784029211290
C        -5.66510027791094    4.62308578041931   -4.47913261459609
H        -3.75131578177510    5.58723381681765   -4.38252441147570
H        -7.45624514732473    3.44676778036747   -4.38134975264174
H        -6.08886900947627    5.35621971611701   -5.14744089737745
23
 energy: -34.040763108592 xtb: 6.4.1 (afa7bdf)
C        -3.09252763685263   -2.23725565521025    0.22858235318662
C        -1.93322046873010   -1.83521070784459   -0.40502459451056
C        -1.00469256883493   -1.03181947167438    0.22702707153591
C        -1.22065893620632   -0.59504501841108    1.55130198664022
C        -2.37460216297623   -1.06761580186701    2.00918558375652
C        -3.36132967055376   -1.83098631328816    1.55289653998179
H        -3.82403141065533   -2.86676255702249   -0.25549336402473
H        -1.74681021271894   -2.15938425292386   -1.41891069624807
H        -0.09431879976485   -0.71336900653380   -0.25827183889962
H        -0.51339362179828    0.03008648594602    2.06710134444536
H        -4.25576017017396   -2.13061222828094    2.06988875464765
I        -3.75053160163247    1.31080511275764   -1.48052646671998
C        -4.58505512633273    2.75456594155724   -2.78428634161012
C        -3.80051393585648    3.81852104552527   -3.19884236202507
C        -5.89884955461474    2.60623994919306   -3.19817736527531
C        -4.35241505521226    4.75648422007526   -4.05234824095661
H        -2.77928889434892    3.91723917413700   -2.86476580435495
C        -6.43615023473158    3.55263828918236   -4.05168787569715
H        -6.49431416116714    1.77094041900261   -2.86358869648141
C        -5.66688548237129    4.62617448977970   -4.47974164991994
H        -3.75296676370971    5.59009177552088   -4.38347811514398
H        -7.45789775373805    3.44962494022773   -4.38230407018561
H        -6.09148577704064    5.36074917003277   -5.14593615211725
23
 energy: -34.040757073814 xtb: 6.4.1 (afa7bdf)
C        -3.09318497621587   -2.23612024886080    0.23135755823332
C        -1.93588983996194   -1.83058624784904   -0.40370970773594
C        -1.00534437982897   -1.03068134409323    0.22980226579731
C        -1.21709898966521   -0.60121547402543    1.55713719244387
C        -2.36958945914687   -1.07628924305237    2.01613236295327
C        -3.35775977192919   -1.83715056579999    1.55873175299859
H        -3.82623698171650   -2.86292120444524   -0.25387926174593
H        -1.75271659716072   -2.14915640182154   -1.41995500770267
H        -0.09654115456617   -0.70953818067408   -0.25665773706477
H        -0.50819917379342    0.02108571600064    2.07412128706395
H        -4.25055510339090   -2.13960609926860    2.07690873005413
I        -3.74884568014498    1.30787949512499   -1.49012371611384
C        -4.58481346751098    2.75414276285241   -2.79011822817039
C        -3.80074829299957    3.81892838312298   -3.20346558112624
C        -5.89908894914245    2.60664451623970   -3.20280093599859
C        -4.35364923790492    4.75862594075442   -4.05440711420786
H        -2.77912117962390    3.91694378458765   -2.87041169269748
C        -6.43739120762100    3.55477622246746   -4.05374709963701
H        -6.49414626588695    1.77064538536923   -2.86923521383342
C        -5.66863373226109    4.62919913226361   -4.48049542988281
H        -3.75459099886751    5.59290547381300   -4.38454921003464
H        -7.45952549611855    3.45243685921285   -4.38337578986035
H        -6.09402906456372    5.36515133796234   -5.14465942370879
23
 energy: -34.040751003276 xtb: 6.4.1 (afa7bdf)
C        -3.09382638471010   -2.23501140110448    0.23413470657040
C        -1.93855574366874   -1.82596703706083   -0.40237269624365
C        -1.00598017969324   -1.02957086651190    0.23258007929775
C        -1.21349513416703   -0.60746232170963    1.56293439485077
C        -2.36452305923716   -1.08505567973372    2.02302676488119
C        -3.35414605021395   -1.84339008346758    1.56452826683777
H        -3.82843785388871   -2.85908676992539   -0.25224890727868
H        -1.75864198438686   -2.13889456664678   -1.42094715350831
H        -0.09875836586212   -0.70571606798330   -0.25502616899693
H        -0.50294942643240    0.01198890433956    2.08108777003183
H        -4.24529542084264   -2.14869433163915    2.08387402322717
I        -3.74731115636513    1.30521541099640   -1.49941036635630
C        -4.58464384993497    2.75384384309388   -2.79582549989419
C        -3.80103018945938    3.81941728201622   -3.20802118925516
C        -5.89937570932977    2.60713099793406   -3.20735682661673
C        -4.35487767505596    4.76075706740074   -4.05652330010303
H        -2.77902288217631    3.91676802774013   -2.87593889866798
C        -6.43862625742868    3.55690391657659   -4.05586356709402
H        -6.49404790220817    1.77047036861098   -2.87476292699576
C        -5.67034830129981    4.63216519694662   -4.48137173953902
H        -3.75618752186375    5.59567060845639   -4.38572920853289
H        -7.46112545298321    3.45520070447912   -4.38455629352386
H        -6.09649349881321    5.36941679707303   -5.14361126306671
23
 energy: -34.040744915559 xtb: 6.4.1 (afa7bdf)
C        -3.09445364174917   -2.23392732706865    0.23691533104353
C        -1.94122064088903   -1.82135073715295   -0.40101270214861
C        -1.00660327960955   -1.02848387362135    0.23536008647530
C        -1.20985151073751   -0.61377879393955    1.56869141877901
C        -2.35940843856280   -1.09390569264186    2.02986651975331
C        -3.35049119010834   -1.84970064122209    1.57028592341398
H        -3.83063400365452   -2.85526119142315   -0.25059830589175
H        -1.76458621138069   -2.12860174499648   -1.42188325476272
H        -0.10097288568653   -0.70190013281624   -0.25337666262471
H        -0.49764913099049    0.00280398874340    2.08799768511986
H        -4.23998304108763   -2.15787332731502    2.09078507355508
I        -3.74591484501193    1.30279169990073   -1.50840826224509
C        -4.58454124173194    2.75366179512650   -2.80141298327056
C        -3.80135550181948    3.81998191265360   -3.21251324501224
C        -5.89970555552241    2.60769300114343   -3.21184933974499
C        -4.35609953406772    4.76287711104408   -4.05869432150305
H        -2.77898819171088    3.91670331119708   -2.88135517622980
C        -6.43985437990814    3.55902033134325   -4.05803504219570
H        -6.49401290279643    1.77040581514133   -2.88018002802264
C        -5.67203058979393    4.63507576556174   -4.48236332543007
H        -3.75775820243714    5.59839127866731   -4.38700965698323
H        -7.46269913609228    3.45791962192276   -4.38583755661646
H        -6.09888594467275    5.37355782963306   -5.14277217543473
23
 energy: -34.040738825787 xtb: 6.4.1 (afa7bdf)
C        -3.09506806235702   -2.23286470593307    0.23969949600745
C        -1.94388430335511   -1.81673624375142   -0.39962787619122
C        -1.00721381761214   -1.02741892614653    0.23814390363521
C        -1.20617031155607   -0.62016061826386    1.57440802050482
C        -2.35424857939411   -1.10283405935657    2.03665008065250
C        -3.34679866503125   -1.85607603780381    1.57600287882491
H        -3.83282660287018   -2.85144100057507   -0.24892756648632
H        -1.77054769076006   -2.11827855515880   -1.42276021603376
H        -0.10318389398771   -0.69809041773578   -0.25170652818124
H        -0.49230113514541   -0.00646389913792    2.09485036102559
H        -4.23462302407210   -2.16713449897734    2.09763838644355
I        -3.74464740010897    1.30059092676772   -1.51713506505495
C        -4.58450084988716    2.75358726620720   -2.80688866231999
C        -3.80172112257720    3.82061603868516   -3.21694551273156
C        -5.90007566252476    2.60832463922367   -3.21628205209451
C        -4.35731532239083    4.76498633269573   -4.06091590605915
H        -2.77901254985910    3.91674071913151   -2.88666734063554
C        -6.44107633346245    3.56112609254379   -4.06025706900167
H        -6.49403712071202    1.77044349791795   -2.88549299081788
C        -5.67368295552290    4.63793440391044   -4.48346196829382
H        -3.75930468242379    5.60106982060085   -4.38838364039132
H        -7.46424861811122    3.46059661718197   -4.38721233480645
H        -6.10121129629975    5.37758260785512   -5.14212839797094
23
 energy: -34.040732747891 xtb: 6.4.1 (afa7bdf)
C        -3.09567040988035   -2.23182233519605    0.24248869484146
C        -1.94654685943087   -1.81212351089817   -0.39821604304559
C        -1.00781270646566   -1.02637460013985    0.24093282686380
C        -1.20245387508957   -0.62660376072581    1.58008386092712
C        -2.34904622351911   -1.11183605762728    2.04337654010303
C        -3.34307070459111   -1.86251250720827    1.58167899651034
H        -3.83501585166716   -2.84762603214700   -0.24723447442132
H        -1.77652542427825   -2.10792698327033   -1.42357459391921
H        -0.10539183195594   -0.69428631139891   -0.25001391186204
H        -0.48690841103423   -0.01580956907042    2.10164467793639
H        -4.22921813810672   -2.17647313353665    2.10443320421356
I        -3.74349989411499    1.29859776827398   -1.52560838211347
C        -4.58451848012099    2.75361313618228   -2.81225980853475
C        -3.80212436432198    3.82131514188338   -3.22132195429642
C        -5.90048332371880    2.60902133936394   -3.22065894092046
C        -4.35852563918609    4.76708585731131   -4.06318493773424
H        -2.77909191627491    3.91687338213828   -2.89188227661439
C        -6.44229269119268    3.56322227412556   -4.06252654576784
H        -6.49411644711863    1.77057645836167   -2.89070873645376
C        -5.67530767535808    4.64074511941247   -4.48466089663468
H        -3.76082885945626    5.60370959878202   -4.38984523003925
H        -7.46577575108588    3.46323495612263   -4.38867472973553
H        -6.10347452205305    5.38149976914216   -5.14166733927909
23
 energy: -34.040726715992 xtb: 6.4.1 (afa7bdf)
C        -3.09625147278295   -2.23081769161079    0.24528962314536
C        -1.94919253816572   -1.80753985761357   -0.39676505339648
C        -1.00838943579337   -1.02536759193531    0.24373353733289
C        -1.19870450768838   -0.63310363422462    1.58571706011961
C        -2.34380101372237   -1.12091231581766    2.05004463670739
C        -3.33931012273206   -1.86900578969895    1.58731241393959
H        -3.83720215122044   -2.84381825853069   -0.24551819808326
H        -1.78251998116641   -2.09754606551492   -1.42432586520163
H        -0.10759482930644   -0.69048842005394   -0.24829800881711
H        -0.48147709739838   -0.02522341255614    2.10837756005611
H        -4.22377360948036   -2.18587917322260    2.11116648659560
I        -3.74247947108761    1.29682460156047   -1.53381405976723
C        -4.58460324818504    2.75375524161169   -2.81750647064181
C        -3.80256769418046    3.82208317322135   -3.22564112376081
C        -5.90093069181086    2.60978720458963   -3.22497854794461
C        -4.35972964483974    4.76917439044315   -4.06550961667327
H        -2.77921850699766    3.91708775729850   -2.89702527625482
C        -6.44350274034033    3.56530748333991   -4.06485166135718
H        -6.49424303681544    1.77079118277801   -2.89585254770857
C        -5.67690526867725    4.64350880031946   -4.48596579080362
H        -3.76233363531879    5.60631624738953   -4.39139337456717
H        -7.46728395449058    3.46583996672979   -4.39022368330261
H        -6.10568534782066    5.38532616137864   -5.14137203959262
23
 energy: -34.040720697042 xtb: 6.4.1 (afa7bdf)
C        -3.09682989941627   -2.22981554852249    0.24809310250365
C        -1.95185096248908   -1.80293402716382   -0.39529283212839
C        -1.00896523383507   -1.02436412231192    0.24653682836257
C        -1.19492120679990   -0.63966294774860    1.59131178071279
C        -2.33851689975672   -1.13005598727679    2.05665559640972
C        -3.33551505352382   -1.87555813895626    1.59290732417091
H        -3.83938467282365   -2.84001393745842   -0.24377523591495
H        -1.78852753856053   -2.08714245327708   -1.42500690034765
H        -0.10979659061554   -0.68669554585352   -0.24655536753492
H        -0.47600010840455   -0.03471543664408    2.11505383482740
H        -4.21828427781280   -2.19536380497636    2.11784311076879
I        -3.74155688402718    1.29522081812795   -1.54181069246356
C        -4.58472885185225    2.75396798228724   -2.82268543001189
C        -3.80304184505835    3.82290465240322   -3.22991427848673
C        -5.90140901489949    2.61060648802329   -3.22925216251373
C        -4.36093171110158    4.77125905757880   -4.06786756243658
H        -2.77940047375351    3.91739794377529   -2.90206072494767
C        -6.44471045617998    3.56738909853775   -4.06721006440568
H        -6.49442499787335    1.77110178667174   -2.90088883414559
C        -5.67848048023464    4.64623370399957   -4.48735291996624
H        -3.76381779924047    5.60888632998831   -4.39302059007371
H        -7.46877084403043    3.46840887906340   -4.39185173162112
H        -6.10783419773217    5.38904520961369   -5.14125625073365
23
 energy: -34.040714724008 xtb: 6.4.1 (afa7bdf)
C        -3.09739712289360   -2.22883218776863    0.25090667644119
C        -1.95450783021068   -1.79833078243680   -0.39378690024675
C        -1.00953028535051   -1.02337974128998    0.24935023680106
C        -1.19110727238826   -0.64627574263930    1.59686671809043
C        -2.33319707135896   -1.13926154915096    2.06320992811110
C        -3.33168900812774   -1.88216372708372    1.59846242736938
H        -3.84156237706512   -2.83621734853433   -0.24200274910141
H        -1.79454622869152   -2.07671938695857   -1.42561421900258
H        -0.11199394161922   -0.68291071528329   -0.24478316129124
H        -0.47048447222711   -0.04427451201556    2.12167072238086
H        -4.21275626588203   -2.20491539069646    2.12446030586251
I        -3.74073203839603    1.29378628188154   -1.54960266460454
C        -4.58490403926448    2.75426653410328   -2.82777746686064
C        -3.80354814598788    3.82378192223392   -3.23414318196929
C        -5.90191964422146    2.61148150160882   -3.23348153603556
C        -4.36213028531286    4.77333769579610   -4.07026819475895
H        -2.77962891112779    3.91778883553207   -2.90701712668688
C        -6.44591474221002    3.56946467822004   -4.06961116372438
H        -6.49465372158226    1.77149300076076   -2.90584611035246
C        -5.68003432940956    4.64892158075683   -4.48882630596554
H        -3.76528563357993    5.61142823907588   -4.39472148087643
H        -7.47024154392211    3.47094960689440   -4.39355348906147
H        -6.10993508919219    5.39268120687489   -5.14129126449471
23
 energy: -34.040708804931 xtb: 6.4.1 (afa7bdf)
C        -3.09795322420964   -2.22786758386456    0.25373176043256
C        -1.95716193039383   -1.79373222069587   -0.39224470289621
C        -1.01008457367220   -1.02241436576974    0.25217517687644
C        -1.18726452654633   -0.65293888423952    1.60238177447978
C        -2.32784236551290   -1.14852755481779    2.06970746019054
C        -3.32783379111930   -1.88881941345474    1.60397762761123
H        -3.84373583223911   -2.83242754493190   -0.24019964984649
H        -1.80057566769540   -2.06627753213700   -1.42614577392273
H        -0.11418742078296   -0.67913296209394   -0.24298030453549
H        -0.46493288987436   -0.05389602450483    2.12822748473055
H        -4.20719221911405   -2.21452929157533    2.13101733781319
I        -3.73999970624347    1.29251200640248   -1.55720076194053
C        -4.58512469821351    2.75464377624018   -2.83279145997661
C        -3.80408461381960    3.82471150405364   -3.23833113983807
C        -5.90246055806384    2.61240878230220   -3.23766997304698
C        -4.36332661834461    4.77541241149182   -4.07270737684668
H        -2.77990061198993    3.91825473385790   -2.91190061469772
C        -6.44711680059591    3.57153634985551   -4.07205082249204
H        -6.49492590090997    1.77195920411020   -2.91073052055652