23
 energy: -34.040805525695 xtb: 6.5.1 (579679a)
C           -3.08777766251783       -2.24547171061714        0.19855160479191
C           -1.91182010136011       -1.87228576409135       -0.42177417560920
C           -0.99996900070298       -1.04004492712442        0.19697423118570
C           -1.25075266808258       -0.54280551286523        1.49356645170215
C           -2.41666704080135       -0.99479245810529        1.94143611072460
C           -3.39154701895200       -1.77882389433605        1.49518382765806
H           -3.80660880114928       -2.89712839998575       -0.27519688337001
H           -1.69894740396206       -2.24228264071824       -1.41465456123144
H           -0.07674604681217       -0.74363806107108       -0.27801523882202
H           -0.55706678793681        0.10583196853514        1.99858612937949
H           -4.29954786182359       -2.05494177911145        2.00141379082235
I           -3.77993254546809        1.36162826280267       -1.35609330999625
C           -4.59257564502331        2.76756416507018       -2.71439236278719
C           -3.80085277872904        3.81907208886933       -3.14641648387384
C           -5.89916942874006        2.60682286413869       -3.14580132221392
C           -4.33777352095336        4.73111254781899       -4.03681552534914
H           -2.78563395133171        3.92820981478419       -2.79761043858797
C           -6.42146715111140        3.52731168598928       -4.03620449213247
H           -6.50067888302664        1.78193716425021       -2.79652239092389
C           -5.64461224483676        4.58766770219076       -4.48290346407341
H           -3.73258125197834        5.55483789512242       -4.38192013973323
H           -7.43751876572092        3.41440517797128       -4.38083415018593
H           -6.05745343900435        5.30191381049459       -5.17795720737397
23
 energy: -34.040806925963 xtb: 6.5.1 (579679a)
C           -3.08549176173648       -2.24945464571112        0.20758790421314
C           -1.91071602472288       -1.87419927485753       -0.41372396361598
C           -0.99766128636372       -1.04401647371571        0.20601022553097
C           -1.24599605711095       -0.55106886433686        1.50470375118007
C           -2.41098207881319       -1.00463587651341        1.95349000899821
C           -3.38676737272365       -1.78707272793754        1.50632128666802
H           -3.80521959946769       -2.89948886905137       -0.26701642158438
H           -1.69982300888525       -2.24076969687994       -1.40829850250922
H           -0.07539595213141       -0.74602303794472       -0.26983500212796
H           -0.55133800931856        0.09588841540901        2.01055497279784
H           -4.29379861548538       -2.06487225564138        2.01338206448151
I           -3.77267956341755        1.34911016722048       -1.38917779449892
C           -4.59157741615762        2.76584984754241       -2.73245302483575
C           -3.80186675057120        3.82082108538143       -3.15976454592708
C           -5.90016505205915        2.60856747369959       -3.15914157541937
C           -4.34295837069546        4.74007128641025       -4.04017731661682
H           -2.78495286530485        3.92707069846525       -2.81503260818232
C           -6.42663615874251        3.53626436728729       -4.03955872507113
H           -6.50000950370844        1.78076408928002       -2.81392998678313
C           -5.65191724518130        4.60030083641376       -4.48120344076713
H           -3.73938366017732        5.56658082955518       -4.38145001306877
H           -7.44429073680109        3.42613813350538       -4.38035023472741
H           -6.06807291044915        5.32027449243149       -5.16833705813443
23
 energy: -34.040802471786 xtb: 6.5.1 (579679a)
C           -3.08676023633395       -2.24720244967847        0.20982583426795
C           -1.91382200212709       -1.86882091173508       -0.41312700511645
C           -0.99897635995196       -1.04179208103172        0.20824848321085
C           -1.24343180722991       -0.55553685235476        1.51019077699310
C           -2.40728215670822       -1.01103757511551        1.95996548602616
C           -3.38417583425232       -1.79152407369200        1.51180798515680
H           -3.80777168795626       -2.89506608048437       -0.26575743952931
H           -1.70550870840761       -2.23092596640396       -1.40980552474760
H           -0.07794986097333       -0.74160291801801       -0.26857547791455
H           -0.54717723243884        0.08866350367159        2.01738032170163
H           -4.28961641566400       -2.07208319777912        2.02020704912588
I           -3.76852598130167        1.34191421739249       -1.40265300751604
C           -4.59003637320811        2.76318037906346       -2.73939430683920
C           -3.80119848203440        3.81965502971790       -3.16463353736084
C           -5.89948961643550        2.60740376966059       -3.16400977700016
C           -4.34401421869921        4.74190006743865       -4.04083887755257
H           -2.78361340858644        3.92474152231560       -2.82152813191056
C           -6.42769377752028        3.53809039641268       -4.04021948900472
H           -6.49866138618410        1.77843699519575       -2.82042409980680
C           -5.65381192350085        4.60357875927019       -4.47983523315479
H           -3.74104272394276        5.56944692527294       -4.38066541412110
H           -7.44594511927196        3.42900397338441       -4.37956423954659
H           -6.07119468729598        5.32567656750866       -5.16399437536122
23
 energy: -34.040797380924 xtb: 6.5.1 (579679a)
C           -3.08782834462496       -2.24536790073546        0.21230749909982
C           -1.91678216933883       -1.86369449039746       -0.41220188939947
C           -1.00002948276574       -1.03994973324262        0.21073036991806
C           -1.24055138027407       -0.56053171948577        1.51593050695316
C           -2.40300265152522       -1.01844227259497        1.96692429489632
C           -3.38128559918292       -1.79651243101855        1.51754748202013
H           -3.81029065933187       -2.89068271024045       -0.26452524892953
H           -1.71149075114859       -2.22056895086929       -1.41138189735262
H           -0.08048610274519       -0.73723103411734       -0.26734285829995
H           -0.54279645547800        0.08107737356629        2.02435007559144
H           -4.28523103967384       -2.07966521996340        2.02717644107468
I           -3.76505939518885        1.33590929428883       -1.41508201029803
C           -4.58881286506312        2.76105982255997       -2.74621102006564
C           -3.80070364306190        3.81881295730862       -3.16964363905006
C           -5.89900891138232        2.60655213129175       -3.16901927713916
C           -4.34509086046388        4.74377851280908       -4.04198683188086
H           -2.78248925470103        3.92279006498928       -2.82806889565433
C           -6.42878447987486        3.53995933822479       -4.04136685017500
H           -6.49753368711314        1.77648513248019       -2.82696381851928
C           -5.65570401721748        4.60685203639651       -4.47899667967040
H           -3.74273670640254        5.57238943906337       -4.38031049476775
H           -7.44764864003235        3.43193853975432       -4.37920828086440
H           -6.07435290343402        5.33114181994416       -5.16005697748724
23
 energy: -34.040792037546 xtb: 6.5.1 (579679a)
C           -3.08877323565577       -2.24373959057408        0.21490331931748
C           -1.91963807456427       -1.85874836998973       -0.41115674726013
C           -1.00096537047919       -1.03831704710307        0.21332638365585
C           -1.23748747257661       -0.56583676412228        1.52177763915122
C           -2.39854776695132       -1.02615053532723        1.97394492174033
C           -3.37821823156282       -1.80181466684691        1.52339441580218
H           -3.81271507433151       -2.88646868718655       -0.26316825406198
H           -1.71743031750447       -2.21028524160181       -1.41284842252935
H           -0.08292273306496       -0.73302551898436       -0.26598549704265
H           -0.53818844424419        0.07309956235878        2.03144744671231
H           -4.28061978710955       -2.08763977742014        2.03427349505962
I           -3.76198795757209        1.33058888943188       -1.42701614472229
C           -4.58781672938577        2.75933262734752       -2.75291227234177
C           -3.80039576265037        3.81828771774512       -3.17463556399331
C           -5.89870950625822        2.60602073661763       -3.17401070192620
C           -4.34624576384594        4.74578707549424       -4.04335957428923
H           -2.78159258460985        3.92123233307240       -2.83450452164275
C           -6.42994900418930        3.54196109495038       -4.04273909529941
H           -6.49663371090375        1.77492709660803       -2.83339856511121
C           -5.65761142237121        4.61015166981970       -4.47852107183210
H           -3.74445546847629        5.57537082726557       -4.38029838624820
H           -7.44937369305338        3.43491408415139       -4.37919529384366
H           -6.07742188866381        5.33645248430533       -5.15671750929484
23
 energy: -34.040786503041 xtb: 6.5.1 (579679a)
C           -3.08962446622757       -2.24227216112308        0.21757651800511
C           -1.92242010849359       -1.85392996683496       -0.41002360234419
C           -1.00180858193252       -1.03684578685202        0.21599975835048
C           -1.23428879937864       -0.57137630703466        1.52767831052445
C           -2.39394849104903       -1.03410871399352        1.98100761071159
C           -3.37501498971829       -1.80735078501704        1.52929490765315
H           -3.81505748016359       -2.88239550042114       -0.26172151052492
H           -1.72332444596100       -2.20007997631220       -1.41420591093640
H           -0.08527821511493       -0.72896129578336       -0.26453842027881
H           -0.53342536307486        0.06485171467670        2.03859317737241
H           -4.27585203155749       -2.09588358903470        2.04141894040874
I           -3.75923955247067        1.32582777666590       -1.43850404000587
C           -4.58701170885394        2.75793614132475       -2.75946877193479
C           -3.80023399586619        3.81801319363089       -3.17958968067028
C           -5.89855443712732        2.60574117816083       -3.17896438289204
C           -4.34744719289884        4.74787436122415       -4.04491829511973
H           -2.78088199081155        3.91999696613887       -2.84081421039755
C           -6.43115861711707        3.54404249550476       -4.04429738188912
H           -6.49592020391582        1.77369135823963       -2.83970748400330
C           -5.65951362597140        4.61344219062751       -4.47834719504500
H           -3.74618318349418        5.57836587879743       -4.38055716135168
H           -7.45110627070303        3.43790427349756       -4.37945329943931
H           -6.08040624812315        5.34161655392955       -5.15385787619290
23
 energy: -34.040780816198 xtb: 6.5.1 (579679a)
C           -3.09040970356985       -2.24091625448044        0.22029648758106
C           -1.92515585251830       -1.84919154684193       -0.40883058693780
C           -1.00258805602280       -1.03548734863278        0.21871989434004
C           -1.23099270445580       -0.57710004613529        1.53359422938582
C           -2.38923774935357       -1.04225981904562        1.98809484747930
C           -3.37170082358055       -1.81306330752824        1.53521064499140
H           -3.81734533424879       -2.87841288781273       -0.26021564768453
H           -1.72919947636384       -2.18990756546242       -1.41548079474520
H           -0.08758236854656       -0.72498950160535       -0.26303224075483
H           -0.52854811139854        0.05639116273326        2.04574551877019
H           -4.27095704740664       -2.10433257092929        2.04857099955372
I           -3.75674320490347        1.32150294596472       -1.44955709248498
C           -4.58635802210654        2.75680153542762       -2.76587355608063
C           -3.80018644125925        3.81793424247007       -3.18449182222962
C           -5.89851183987818        2.60565827691594       -3.18386614184489
C           -4.34867477219295        4.75000579963104       -4.04662197760654
H           -2.78032116619941        3.91901949542804       -2.84699235935699
C           -6.43239351802395        3.54616862421871       -4.04600068234723
H           -6.49535541977773        1.77271425734142       -2.84588495480274
C           -5.66139718673192        4.61670036056749       -4.47841962150533
H           -3.74790668274582        5.58135007513818       -4.38103495122192
H           -7.45283167752940        3.44088545178894       -4.37993041172765
H           -6.08330284121081        5.34662862086051       -5.15139978077068
23
 energy: -34.040775005109 xtb: 6.5.1 (579679a)
C           -3.09114945678328       -2.23964172427299        0.22304318226507
C           -1.92786047322031       -1.84450686481251       -0.40759506792710
C           -1.00331967229339       -1.03420892031983        0.22146675653944
C           -1.22760563873759       -0.58295734896142        1.53951131604569
C           -2.38442862546887       -1.05058126022490        1.99514183117982
C           -3.36831638001518       -1.81892133443261        1.54112756846901
H           -3.81960156484166       -2.87448900908946       -0.25867219886844
H           -1.73507167496685       -2.17973985660990       -1.41668995440371
H           -0.08985132548195       -0.72107438846621       -0.26148847562918
H           -0.52356679467918        0.04777214137744        2.05288689536892
H           -4.26597678041876       -2.11295085440466        2.05571211119370
I           -3.75450577006373        1.31762622287877       -1.46023665997297
C           -4.58582929926116        2.75588315457277       -2.77213735256240
C           -3.80022467187677        3.81800450371949       -3.18932485698884
C           -5.89855574909876        2.60572425383325       -3.18869884597031
C           -4.34991195982929        4.75215319286889       -4.04843340349406
H           -2.77987770319361        3.91824881420509       -2.85303114108783
C           -6.43363752697329        3.54831107836016       -4.04781177860862
H           -6.49491127878528        1.77194219578388       -2.85192315031803
C           -5.66324943055442        4.61990426815706       -4.47869195524482
H           -3.74960653957767        5.58429674026077       -4.38168720712860
H           -7.45453648952120        3.44382748238747       -4.38058208087671
H           -6.08610519438243        5.35147751320132       -5.14928553198005
23
 energy: -34.040769098098 xtb: 6.5.1 (579679a)
C           -3.09185147222909       -2.23842543760774        0.22580786524877
C           -1.93054718893826       -1.83985303968875       -0.40632768746197
C           -1.00401959265850       -1.03299224394369        0.22423161493992
C           -1.22415973915304       -0.58894357890694        1.54540631143443
C           -2.37954227210449       -1.05903640174299        2.00216700685579
C           -3.36484964432390       -1.82489472452190        1.54702237558002
H           -3.82183244120951       -2.87060385013823       -0.25709240543244
H           -1.74094955267466       -2.16956211421104       -1.41784004118512
H           -0.09209927279928       -0.71720054007370       -0.25990835535168
H           -0.51851396007998        0.03899931201858        2.05999833999990
H           -4.26089903484160       -2.12170791934690        2.06282326006791
I           -3.75244320925595        1.31405212069524       -1.47050281785977
C           -4.58540886629734        2.75515215519698       -2.77825042047307
C           -3.80034424785128        3.81820744274500       -3.19409468391623
C           -5.89867405062021        2.60592700053260       -3.19346839025232
C           -4.35115821990150        4.75431078159301       -4.05034619898290
H           -2.77954453178047        3.91766033368105       -2.85894020100348
C           -6.43488591664815        3.55046651261994       -4.04972429171663
H           -6.49456999976238        1.77135676036844       -2.85783170787668
C           -5.66507272146320        4.62305800767502       -4.47914865114872
H           -3.75129199908955        5.58720938866021       -4.38250242899284
H           -7.45621912668171        3.44674012306524       -4.38139680024963
H           -6.08882293966063        5.35617991134248       -5.14748169222338
23
 energy: -34.040763094481 xtb: 6.5.1 (579679a)
C           -3.09253511513908       -2.23724280093102        0.22857547469223
C           -1.93323532627540       -1.83519659806033       -0.40504393896608
C           -1.00469941953341       -1.03180829200623        0.22699943284427
C           -1.22064954823342       -0.59503835979053        1.55127835751094
C           -2.37458771121009       -1.06760960996510        2.00917360863215
C           -3.36132101467197       -1.83097798035761        1.55289420149364
H           -3.82404512813105       -2.86674742625646       -0.25549351683151
H           -1.74683736390989       -2.15936694143136       -1.41893316892258
H           -0.09433124200708       -0.71335682520408       -0.25830907732542
H           -0.51337761956717        0.03009061952090        2.06707148494650
H           -4.25574539646813       -2.13060512186917        2.06989605523083
I           -3.75058332095423        1.31082875581688       -1.48044191302707
C           -4.58507408849710        2.75456931343405       -2.78424473404947
C           -3.80052309103458        3.81851904939484       -3.19879540028055
C           -5.89885699350416        2.60623540040521       -3.19816887489031
C           -4.35240202139519        4.75646823641372       -4.05233077954824
H           -2.77930748265276        3.91724367712747       -2.86469224687992
C           -6.43613550536935        3.55261979364779       -4.05170863266152
H           -6.49432967364778        1.77094050469235       -2.86358332562681
C           -5.66686037878202        4.62615002360144       -4.47975826170296
H           -3.75294568800479        5.59007119612210       -4.38345732994644
H           -7.45787370052172        3.44959992264400       -4.38235127288556
H           -6.09144317051428        5.36071346306302       -5.14597614180624
23
 energy: -34.040757061751 xtb: 6.5.1 (579679a)
C           -3.09319154928323       -2.23610932174454        0.23135272145173
C           -1.93590343481525       -1.83057461422196       -0.40372665402727
C           -1.00535005344541       -1.03067251348953        0.22977697227302
C           -1.21708891193090       -0.60121044714251        1.55711551046900
C           -2.36957459948468       -1.07628421972539        2.01612217480389
C           -3.35775067638296       -1.83714341854834        1.55873105065936
H           -3.82624969796627       -2.86290811561083       -0.25387736022368
H           -1.75274212967972       -2.14914210768433       -1.41997479329532
H           -0.09655214272314       -0.70952881204367       -0.25669237820012
H           -0.50818256604280        0.02108834299146        2.07409332764636
H           -4.25054017899692       -2.13959973186440        2.07691739081943
I           -3.74889514314918        1.30790239439116       -1.49004523209581
C           -4.58483209286446        2.75414696959167       -2.79008007576384
C           -3.80075791127988        3.81892804968881       -3.20342154359416
C           -5.89909647687288        2.60664096719986       -3.20279481063578
C           -4.35363788723796        4.75861256173780       -4.05439087984244
H           -2.77913989782788        3.91694985152357       -2.87034194956829
C           -6.43737778667933        3.55475967295279       -4.05376852859544
H           -6.49416125624058        1.77064585086119       -2.86923266567053
C           -5.66861073896978        4.62917742165732       -4.48051215157912
H           -3.75457224567827        5.59288815029233       -4.38452917803623
H           -7.45950309265929        3.45241392925821       -4.38342275649634
H           -6.09398952981385        5.36511913994124       -5.14469819049851
23
 energy: -34.040750992942 xtb: 6.5.1 (579679a)
C           -3.09383229974758       -2.23500192084380        0.23413152647178
C           -1.93856834058784       -1.82595738041809       -0.40238764950288
C           -1.00598493331860       -1.02956392171368        0.23255675128246
C           -1.21348458688639       -0.60745851421503        1.56291431557377
C           -2.36450799675771       -1.08505144851509        2.02301794092603
C           -3.35413674580126       -1.84338370348179        1.56452885068079
H           -3.82844983797497       -2.85907520883186       -0.25224534647060
H           -1.75866618442290       -2.13888274535332       -1.42096468166201
H           -0.09876816773690       -0.70570901812357       -0.25505859835421
H           -0.50293242937619        0.01199041159913        2.08106138476165
H           -4.24528056437016       -2.14868829582758        2.08388370838487
I           -3.74735830455199        1.30523729088242       -1.49933752798513
C           -4.58466196891308        2.75384850488381       -2.79579042149376
C           -3.80104005673826        3.81941817070246       -3.20797970110264
C           -5.89938312161138        2.60712805137837       -3.20735271830514
C           -4.35486774610892        4.76074583418221       -4.05650795591912
H           -2.77904152696871        3.91677520939960       -2.87587256946466
C           -6.43861389558578        3.55688889654141       -4.05588535717288
H           -6.49406219065278        1.77047083829093       -2.87476284843055
C           -5.67032714170438        4.63214579816399       -4.48138825431153
H           -3.75617079927318        5.59565605470300       -4.38570959863951
H           -7.46110443709764        3.45517944563066       -4.38460274046817
H           -6.09645672383806        5.36938765097774       -5.14364850879863
23
 energy: -34.040744906668 xtb: 6.5.1 (579679a)
C           -3.09445909270755       -2.23391898929537        0.23691353636960
C           -1.94123248672093       -1.82134268167141       -0.40102599296157
C           -1.00660737030482       -1.02847840511216        0.23533836642723
C           -1.20984069996769       -0.61377584736424        1.56867261973066
C           -2.35939332536565       -1.09390197264380        2.02985878788123
C           -3.35048181720970       -1.84969477834982        1.57028755977248
H           -3.83064545046119       -2.85525086623880       -0.25059333872332
H           -1.76460937351384       -2.12859196742121       -1.42189888851124
H           -0.10098180816608       -0.70189491920283       -0.25340728823337
H           -0.49763195830743        0.00280476394488        2.08797252811030
H           -4.23996835307726       -2.15786742773741        2.09079559311242
I           -3.74595963249547        1.30281239432997       -1.50834062216864
C           -4.58455871010654        2.75366664315540       -2.80138064688331
C           -3.80136544193306        3.81998372038523       -3.21247398530294
C           -5.89971268362032        2.60769036519892       -3.21184696395230
C           -4.35609080101259        4.76286767646826       -4.05867960674802
H           -2.77900660146394        3.91671130777509       -2.88129190595023
C           -6.43984285904394        3.55900650465581       -4.05805696868444
H           -6.49402633535534        1.77040601200670       -2.88018212887069
C           -5.67201101682255        4.63505831430735       -4.48237941840445
H           -3.75774326287246        5.59837912576297       -4.38699021689830
H           -7.46267927282431        3.45789968524747       -4.38588329597724
H           -6.09885164667195        5.37353134181092       -5.14280772313390
23
 energy: -34.040738818117 xtb: 6.5.1 (579679a)
C           -3.09507318896263       -2.23285723327343        0.23969884220580
C           -1.94389554531143       -1.81672949571456       -0.39963976066772
C           -1.00721737999061       -1.02741466852767        0.23812355536629
C           -1.20615935303198       -0.62015830879999        1.57439029178412
C           -2.35423353191874       -1.10283062927211        2.03664322726847
C           -3.34678934658926       -1.85607045587377        1.57600534900132
H           -3.83283766294267       -2.85143161328623       -0.24892144803466
H           -1.77056996995708       -2.11827050527593       -1.42277422613634
H           -0.10319207483839       -0.69808676381242       -0.25173558967035
H           -0.49228389294996       -0.00646365454750        2.09482623736858
H           -4.23460862272788       -2.16712851061889        2.09764952930045
I           -3.74468986140349        1.30061033894106       -1.51707221724802
C           -4.58451759836031        2.75359210127067       -2.80685880336971
C           -3.80173102800121        3.82061852759792       -3.21690823386043
C           -5.90008241907581        2.60832210894457       -3.21628118481715
C           -4.35730762311549        4.76497841978846       -4.06090163306038
H           -2.77903063230058        3.91674929439151       -2.88660684402319
C           -6.44106551181605        3.56111321491281       -4.06027896762007
H           -6.49404963805280        1.77044324679766       -2.88549702706361
C           -5.67366479016214        4.63791862022350       -4.48347749061542
H           -3.75929133036923        5.60105975538028       -4.38836420772450
H           -7.46422974767808        3.46057774849390       -4.38725724570673
H           -6.10117925046876        5.37755846227210       -5.14216215267677
23
 energy: -34.040732741264 xtb: 6.5.1 (579679a)
C           -3.09567531040438       -2.23181553498498        0.24248901057061
C           -1.94655760881393       -1.81211785603951       -0.39822671229068
C           -1.00781584589479       -1.02637135246836        0.24091367029743
C           -1.20244284792421       -0.62660193331815        1.58006705024331
C           -2.34903131941808       -1.11183276562217        2.04337041884269
C           -3.34306151410964       -1.86250706062062        1.58168215712618
H           -3.83502663030247       -2.84761737877583       -0.24722737910792
H           -1.77654694787219       -2.10792041759440       -1.42358718702966
H           -0.10539938636836       -0.69428399662022       -0.25004159933793
H           -0.48689116503024       -0.01580972378550        2.10162144689725
H           -4.22920407963929       -2.17646694188600        2.10444484507394
I           -3.74354008289715        1.29861585359391       -1.52555000241352
C           -4.58453447483570        2.75361783595722       -2.81223221299977
C           -3.80213416512235        3.82131815233924       -3.22128646438420
C           -5.90048965595751        2.60901878221417       -3.22065941444811
C           -4.35851885153207        4.76707926531210       -4.06317097719054
H           -2.77910961288020        3.91688237465371       -2.89182433450973
C           -6.44228246374313        3.56321017173066       -4.06254831115810
H           -6.49412801858148        1.77057564772964       -2.89071453164375
C           -5.67529077816486        4.64073079589330       -4.48467576006125
H           -3.76081694246199        5.60370138751666       -4.38982569938579
H           -7.46575775096062        3.46321697016527       -4.38871874934650
H           -6.10344454710996        5.38147772462178       -5.14169926374394
23
 energy: -34.040726710256 xtb: 6.5.1 (579679a)
C           -3.09625621634052       -2.23081142564840        0.24529077243314
C           -1.94920287767599       -1.80753513160318       -0.39677465883718
C           -1.00839222711990       -1.02536520162764        0.24371542536012
C           -1.19869347444046       -0.63310215958787        1.58570103814391
C           -2.34378630319684       -1.12090905566985        2.05003912825247
C           -3.33930111608744       -1.86900036325209        1.58731614698104
H           -3.83721272345947       -2.84381019253054       -0.24551026554130
H           -1.78254084119580       -2.09754080307716       -1.42433720674640
H           -0.10760184213589       -0.69048727195091       -0.24832448179667
H           -0.48145991157581       -0.02522383713228        2.10835509449445
H           -4.22375994371200       -2.18587267199083        2.11117851779725
I           -3.74251745859783        1.29684133408570       -1.53375986090490
C           -4.58461847341386        2.75375971128841       -2.81748096288098
C           -3.80257734121834        3.82208657857665       -3.22560725894886
C           -5.90093656800855        2.60978452333213       -3.22498022393276
C           -4.35972366687943        4.76916895410001       -4.06549586630292
H           -2.77923578596412        3.91709704761093       -2.89696967948485
C           -6.44349302239650        3.56529602049019       -4.06487321659741
H           -6.49425366066499        1.77078974801067       -2.89585993893391
C           -5.67688951957629        4.64349576638972       -4.48597993666379
H           -3.76232302253575        5.60630969540706       -4.39137366069556
H           -7.46726672491556        3.46582272290820       -4.39026677267416
H           -6.10565727891326        5.38530601188304       -5.14140213252076
23
 energy: -34.040720692063 xtb: 6.5.1 (579679a)
C           -3.09683454295814       -2.22980969966988        0.24809497193767
C           -1.95186096085687       -1.80293009453548       -0.39530150382939
C           -1.00896774329478       -1.02436246026168        0.24651963641005
C           -1.19491020751655       -0.63966174068819        1.59129644834832
C           -2.33850241469157       -1.13005268782962        2.05665061421489