23
 energy: -34.040805567847 xtb: 6.4.1 (afa7bdf)
C        -3.08783351892928   -2.24537605340275    0.19850729149301
C        -1.91186254840435   -1.87220339488291   -0.42180069169841
C        -1.00002566010017   -1.03994721791567    0.19694866835503
C        -1.25084097773876   -0.54267913298154    1.49352342638522
C        -2.41676359445025   -0.99465814623860    1.94138100554544
C        -3.39163247563244   -1.77869837768031    1.49512134043513
H        -3.80665559395486   -2.89704051943764   -0.27524405697621
H        -1.69896836077973   -2.24222063210031   -1.41466894653261
H        -0.07679459892310   -0.74354653034351   -0.27802847704438
H        -0.55716892585527    0.10597475509764    1.99854137298964
H        -4.29964735955661   -2.05480257534662    2.00133402900082
I        -3.77972236073290    1.36134075680674   -1.35634866796669
C        -4.59245295349015    2.76738737471959   -2.71447431012681
C        -3.80075897160339    3.81893315788216   -3.14645842018957
C        -5.89907794334210    2.60668449736145   -3.14580269403172
C        -4.33774657427198    4.73105964800734   -4.03672831740232
H        -2.78551291406516    3.92803293236005   -2.79771918989767
C        -6.42144236323169    3.52725915596729   -4.03607701866050
H        -6.50055760813970    1.78176236373589   -2.79655775064989
C        -5.64462026525361    4.58765936124227   -4.48272882132358
H        -3.73257999902466    5.55481781186167   -4.38179969908185
H        -7.43751979857910    3.41438561063662   -4.38064120342016
H        -6.05751463383746    5.30197515465259   -5.17767886913095
23
 energy: -34.040807056703 xtb: 6.4.1 (afa7bdf)
C        -3.08540943706481   -2.24959469437771    0.20773975735984
C        -1.91061862591474   -1.87435697389593   -0.41355453628843
C        -0.99758300782464   -1.04415312870950    0.20617990893731
C        -1.24596773485843   -0.55114053422016    1.50483815664462
C        -2.41097482796196   -1.00467651433620    1.95360407773886
C        -3.38673482598382   -1.78714791180268    1.50643741877833
H        -3.80512237945566   -2.89964711244672   -0.26686180967775
H        -1.69968831620802   -2.24097539124166   -1.40810115461950
H        -0.07530456925568   -0.74617422184182   -0.26964857031953
H        -0.55132912134430    0.09584358341194    2.01068274390089
H        -4.29378478564246   -2.06492470554465    2.01347817469619
I        -3.77252773833689    1.34892233670614   -1.38967473737843
C        -4.59155986137095    2.76584170150344   -2.73273925102470
C        -3.80189174193410    3.82087460972162   -3.15998864523372
C        -5.90019184922803    2.60862919520775   -3.15932975952926
C        -4.34305758428479    4.74023527788678   -4.04024102334755
H        -2.78494563240833    3.92707944782575   -2.81533905577754
C        -6.42673877181060    3.53643531097276   -4.03958666539623
H        -6.50000939461933    1.78078431447408   -2.81417239838141
C        -5.65205332753784    4.60051936014458   -4.48117565077067
H        -3.73951071335230    5.56678584091354   -4.38146730102857
H        -7.44442443173115    3.42635465669523   -4.38030362244630
H        -6.06827132176789    5.32058555295491   -5.16817605676560
23
 energy: -34.040802591338 xtb: 6.4.1 (afa7bdf)
C        -3.08669630993329   -2.24731011322511    0.20995297648279
C        -1.91373977743716   -1.86895201477597   -0.41297773660488
C        -0.99891682723961   -1.04189604548234    0.20839314939875
C        -1.24342317156404   -0.55558997067547    1.51030153009197
C        -2.40728376450209   -1.01106242128990    1.96007776061794
C        -3.38414893217301   -1.79157308864123    1.51190076899064
H        -3.80768908325928   -2.89519758107209   -0.26562471232459
H        -1.70539101840771   -2.23110204731410   -1.40963304680654
H        -0.07787440219074   -0.74172731259980   -0.26841145934859
H        -0.54718719142668    0.08863462972706    2.01748801974073
H        -4.28960629364681   -2.07211181608144    2.02028342627617
I        -3.76837665854641    1.34171610726663   -1.40314034764634
C        -4.59001144719125    2.76316069118067   -2.73965166686186
C        -3.80120899570506    3.81968476958332   -3.16483971589465
C        -5.89950184802837    2.60744107881842   -3.16417956121315
C        -4.34409707437822    4.74203607713514   -4.04088834770116
H        -2.78359409791569    3.92472719217691   -2.82180877565549
C        -6.42777922470332    3.53823332225839   -4.04023278103549
H        -6.49864621894569    1.77843516661853   -2.82064015929572
C        -5.65393382036607    4.60377359403506   -4.47978665169955
H        -3.74115611351569    5.56962593800054   -4.38066503089478
H        -7.44606204084104    3.42919573542488   -4.37949942418251
H        -6.07137568797945    5.32595810893340   -5.16381821436278
23
 energy: -34.040797487381 xtb: 6.4.1 (afa7bdf)
C        -3.08777478989518   -2.24545569211391    0.21241792805013
C        -1.91671142522117   -1.86380544894080   -0.41207083984048
C        -0.99998189383782   -1.04003431705475    0.21085809378478
C        -1.24054751132157   -0.56056434974072    1.51602890599771
C        -2.40300616903555   -1.01846348214391    1.96699202336856
C        -3.38127356592539   -1.79654720778872    1.51762814981907
H        -3.81022222365814   -2.89079152673963   -0.26440775932276
H        -1.71138755239028   -2.22071973044079   -1.41123038925570
H        -0.08042327598855   -0.73733114273520   -0.26719447850412
H        -0.54281395812837    0.08106797735928    2.02444832558484
H        -4.28523337473281   -2.07967791086858    2.02724375126794
I        -3.76490705899070    1.33569983882837   -1.41552714632122
C        -4.58878120089506    2.76102801997451   -2.74645087275811
C        -3.80070720071723    3.81882661088025   -3.16983112818138
C        -5.89901095471448    2.60657548796240   -3.16917054307620
C        -4.34516488768527    4.74389594754495   -4.04202367750526
H        -2.78246345541901    3.92276178984372   -2.82833076607588
C        -6.42885797775297    3.54008580498883   -4.04136770368113
H        -6.49751035507518    1.77647094400470   -2.82716146155483
C        -5.65581364959810    4.60702639875196   -4.47893842379817
H        -3.74283736949292    5.57254547104790   -4.38030048901667
H        -7.44775168112699    3.43210863758446   -4.37913422367933
H        -6.07451846829395    5.33139787979723   -5.15987727523088
23
 energy: -34.040792129976 xtb: 6.4.1 (afa7bdf)
C        -3.08872922778249   -2.24381059159827    0.21499799329326
C        -1.91957790688864   -1.85884077483773   -0.41104279637255
C        -1.00092748556106   -1.03838454978676    0.21343815498578
C        -1.23749134652588   -0.56585657055816    1.52186205810976
C        -2.39855655318450   -1.02616225908923    1.97399745527577
C        -3.37821297448636   -1.80183644608333    1.52346130521273
H        -3.81265776949283   -2.88655818106758   -0.26306736195365
H        -1.71734053253694   -2.21041260770912   -1.41271676245078
H        -0.08287115667145   -0.73310570503298   -0.26585406676602
H        -0.53821333910187    0.07310268222578    2.03153236127511
H        -4.28062866390503   -2.08764012291021    2.03432781898324
I        -3.76184786106811    1.33039695957658   -1.42744151493314
C        -4.58778067059876    2.75929233579047   -2.75313190839614
C        -3.80039162236196    3.81828671633866   -3.17480414623957
C        -5.89870335578314    2.60603023604731   -3.17414338893514
C        -4.34630851217754    4.74588446422611   -4.04338540565918
H        -2.78156061517680    3.92119077017349   -2.83474348154478
C        -6.43001072633321    3.54206832737057   -4.04272926522145
H        -6.49660308570282    1.77490122310491   -2.83357390114651
C        -5.65770774670003    4.61030370705079   -4.47845546685043
H        -3.74454344702992    5.57550489058871   -4.38027923400054
H        -7.44946391404220    3.43506325371610   -4.37911269904448
H        -6.07757148678515    5.33668224246541   -5.15653574755038
23
 energy: -34.040786584438 xtb: 6.4.1 (afa7bdf)
C        -3.08958906056341   -2.24233107231763    0.21765750705449
C        -1.92236825852023   -1.85400774612343   -0.40992323224671
C        -1.00177681050587   -1.03689940380607    0.21609766243818
C        -1.23429552502786   -0.57138432847715    1.52775307597217
C        -2.39396518767710   -1.03410636658982    1.98106333936898
C        -3.37501807570712   -1.80736431198391    1.52935233505084
H        -3.81500696919190   -2.88247299334498   -0.26163864416616
H        -1.72324366655794   -2.20019157750967   -1.41408846788606
H        -0.08523372214781   -0.72902901398793   -0.26442534070904
H        -0.53344877689912    0.06486408695553    2.03866537036981
H        -4.27586908954272   -2.09588088684717    2.04146087795078
I        -3.75910523414296    1.32564311378963   -1.43890429183678
C        -4.58697265957155    2.75788968402957   -2.75966941812251
C        -3.80022333025310    3.81800612846101   -3.17974374927175
C        -5.89854705192977    2.60574213112628   -3.17908292140977
C        -4.34749931952842    4.74795851491180   -4.04493543964105
H        -2.78084457212298    3.91995116615193   -2.84103673645164
C        -6.43121420920959    3.54413447233050   -4.04427923133237
H        -6.49588987697853    1.77365895809924   -2.83986704414827
C        -5.65959958936396    4.61357696446797   -4.47827678904878
H        -3.74625839710681    5.57848329985744   -4.38053372234806
H        -7.45118839870096    3.43803513385241   -4.37936707597850
H        -6.08054221864693    5.34182404695601   -5.15367806353680
23
 energy: -34.040780886263 xtb: 6.4.1 (afa7bdf)
C        -3.09037820805280   -2.24096535860537    0.22036818162750
C        -1.92511002588092   -1.84925868900204   -0.40874170121308
C        -1.00256276699382   -1.03553230228712    0.21880833308620
C        -1.23100337100731   -0.57710216140323    1.53366071364176
C        -2.38925398229378   -1.04225796309313    1.98812534552325
C        -3.37170663810121   -1.81307057398454    1.53525996827782
H        -3.81730181070119   -2.87847886796512   -0.26013892440572
H        -1.72912617858668   -2.19000605605963   -1.41537630072204
H        -0.08754442708686   -0.72504484934369   -0.26292561399236
H        -0.52857794090126    0.05640876129462    2.04581343827799
H        -4.27097486995154   -2.10432197894902    2.04860897050913
I        -3.75660780127183    1.32131405612869   -1.44991522420593
C        -4.58631848303184    2.75675324080100   -2.76606010765146
C        -3.80017526290553    3.81792060679859   -3.18463446406430
C        -5.89849978263797    2.60565563591003   -3.18397362111447
C        -4.34872316523050    4.75007947334993   -4.04663632376193
H        -2.78028469848511    3.91896973314593   -2.84720023404699
C        -6.43244194945356    3.54625267305965   -4.04598009919320
H        -6.49532242331341    1.77268100825541   -2.84603051755371
C        -5.66147585859146    4.61682314778307   -4.47835021061626
H        -3.74797627320281    5.58145453911439   -4.38101097970990
H        -7.45290536202272    3.44100600485907   -4.37984430825860
H        -6.08342872019255    5.34681992019407   -5.15122632036260
23
 energy: -34.040775066799 xtb: 6.4.1 (afa7bdf)
C        -3.09112065747860   -2.23968308384099    0.22310699287931
C        -1.92782005415449   -1.84456445003672   -0.40751547816605
C        -1.00329968878131   -1.03424731008520    0.22154714550094
C        -1.22762708139298   -0.58296286514985    1.53956606357249
C        -2.38445127170623   -1.05056795796733    1.99518847248487
C        -3.36831347044315   -1.81892107538580    1.54116530967636
H        -3.81956025586587   -2.87454711025401   -0.25860238338958
H        -1.73500406351786   -2.17982835957136   -1.41659550907522
H        -0.08981917670009   -0.72112334239598   -0.26138905395958
H        -0.52360577545927    0.04778497751139    2.05294500549960
H        -4.26598538137351   -2.11293499413641    2.05574055393479
I        -3.75436187504906    1.31742046378452   -1.46055584563106
C        -4.58578904603769    2.75583267720631   -2.77230705589940
C        -3.80021427418484    3.81799009578065   -3.18946008065441
C        -5.89854336835502    2.60572203133370   -3.18879925825278
C        -4.34995672348536    4.75222035407101   -4.04844710102268
H        -2.77984337783293    3.91819793730809   -2.85322736761567
C        -6.43368218532228    3.54838924782685   -4.04779089608105
H        -6.49487743349194    1.77191054117044   -2.85205769036056
C        -5.66332300054986    4.62001882677344   -4.47862566434486
H        -3.74967347672785    5.58439372060238   -4.38166642157836
H        -7.45460499610898    3.44394298978688   -4.38049978725887
H        -6.08622336587746    5.35165668566958   -5.14911995018721
23
 energy: -34.040769151999 xtb: 6.4.1 (afa7bdf)
C        -3.09182822466624   -2.23846213565381    0.22586323095860
C        -1.93051043487397   -1.83990409876339   -0.40625547688275
C        -1.00400082464985   -1.03302315253150    0.22430339555384
C        -1.22417784168503   -0.58894049743188    1.54545770681019
C        -2.37956757860651   -1.05901818130586    2.00221665165367
C        -3.36485546862742   -1.82489315987088    1.54705693803212
H        -3.82179535650355   -2.87065644152724   -0.25703644974531
H        -1.74088743311293   -2.16964098088373   -1.41775442182800
H        -0.09206987167115   -0.71724256865060   -0.25982308052866
H        -0.51854664824790    0.03901973024626    2.06004983605123
H        -4.26091684477749   -2.12169398702123    2.06284538140536
I        -3.75232478680293    1.31388839853169   -1.47082697032619
C        -4.58536834807294    2.75510030949597   -2.77841013214804
C        -3.80032775678620    3.81818918791719   -3.19421775438177
C        -5.89866208400164    2.60591770393494   -3.19355698254282
C        -4.35119412762992    4.75436816591015   -4.05035261830691
H        -2.77950512532645    3.91760743968373   -2.85912229646305
C        -6.43492658088434    3.55053262583320   -4.04969646291833
H        -6.49453808153448    1.77131998379585   -2.85795271077268
C        -5.66513784216389    4.62315852024891   -4.47907899616062
H        -3.75134705453634    5.58729315663479   -4.38247762052274
H        -7.45628210208527    3.44683969065306   -4.38131107595649
H        -6.08892958265025    5.35634029075599   -5.14732009090958
23
 energy: -34.040763141446 xtb: 6.4.1 (afa7bdf)
C        -3.09251517299788   -2.23727501088784    0.22862492380315
C        -1.93320201282288   -1.83524153543703   -0.40497836096671
C        -1.00468284865943   -1.03183376016844    0.22706513860399
C        -1.22066480874994   -0.59502986555828    1.55132779917733
C        -2.37461187926123   -1.06759308531348    2.00921085263329
C        -3.36133257681842   -1.83097627452652    1.55292697729631
H        -3.82401195924609   -2.86679461806272   -0.25544486510190
H        -1.74677997299737   -2.15943751165177   -1.41885516643491
H        -0.09430465169324   -0.71339225905720   -0.25823138801254
H        -0.51340679594687    0.03011520638907    2.06712072952650
H        -4.25576807721121   -2.13059241553547    2.06991620584828
I        -3.75047319917547    1.31067745900826   -1.48074727127861
C        -4.58503550969102    2.75451996104779   -2.78439306348111
C        -3.80050521291240    3.81849892656643   -3.19890953591802
C        -5.89884477060154    2.60622409136141   -3.19824885044065
C        -4.35243335686239    4.75651855999962   -4.05233568339176
H        -2.77926778726549    3.91719185244035   -2.86486343424323
C        -6.43617238576326    3.55267889545978   -4.05167960595977
H        -6.49429990854731    1.77090428893721   -2.86369398694467
C        -5.66691960354003    4.62624088315059   -4.47969045577821
H        -3.75299413697295    5.59014558162676   -4.38343295849502
H        -7.45793182870743    3.44968999229444   -4.38226655061715
H        -6.09154154345284    5.36086063791868   -5.14582144975349
23
 energy: -34.040757102333 xtb: 6.4.1 (afa7bdf)
C        -3.09317380115911   -2.23613746157567    0.23139683670189
C        -1.93587318376082   -1.83061410817026   -0.40366721935849
C        -1.00533589674747   -1.03069372011895    0.22983718816988
C        -1.21710497459625   -0.60120026231625    1.55716089559947
C        -2.36959872290577   -1.07626749415455    2.01615509032887
C        -3.35776294211114   -1.83714028920249    1.55875993006883
H        -3.82621944323851   -2.86295014255520   -0.25383446376615
H        -1.75268915340605   -2.14920495246458   -1.41990414109483
H        -0.09652868598668   -0.70955864022351   -0.25662072394079
H        -0.50821198938060    0.02111382315464    2.07413885219974
H        -4.25056302067762   -2.13958664669877    2.07693409922797
I        -3.74879142385441    1.30776035370598   -1.49033017320883
C        -4.58479484289923    2.75409910464852   -2.79021757611301
C        -3.80073968099381    3.81890662298339   -3.20352778373831
C        -5.89908392975014    2.60662881958719   -3.20286719493941
C        -4.35366570202321    4.75865685178596   -4.05439478562715
H        -2.77910108422626    3.91689855743475   -2.87050220286237
C        -6.43741124089139    3.55481316604544   -4.05373880569049
H        -6.49413253191804    1.77061092885540   -2.86933293263937
C        -5.66866489149918    4.62926003151042   -4.48044696505229
H        -3.75461588431944    5.59295453357570   -4.38450629538575
H        -7.45955666781420    3.45249670077936   -4.38334006136580
H        -6.09408030573744    5.36525422341507   -5.14455156744251
23
 energy: -34.040751028134 xtb: 6.4.1 (afa7bdf)
C        -3.09381635239772   -2.23502675073040    0.23417094767293
C        -1.93854067507243   -1.82599228717280   -0.40233364195246
C        -1.00597275836962   -1.02958158593779    0.23261210636065
C        -1.21350117005839   -0.60744726092403    1.56295613707895
C        -2.36453207323474   -1.08503453870858    2.02304771876516
C        -3.35414932267308   -1.84337972819858    1.56455433723843
H        -3.82842190396401   -2.85911310447984   -0.25220751527880
H        -1.75861691532140   -2.13893912757560   -1.42090045152546
H        -0.09874728537834   -0.70573426030737   -0.25499230789542
H        -0.50296184005740    0.01201606305725    2.08110382060874
H        -4.24530306694889   -2.14867544953872    2.08389762438683
I        -3.74726062248934    1.30510398572300   -1.49960283990905
C        -4.58462621847034    2.75380247817898   -2.79591792281201
C        -3.80102178572110    3.81939619045976   -3.20807888947281
C        -5.89937069952375    2.60711570617010   -3.20741834072308
C        -4.35489252166714    4.76078503624627   -4.05651134340260
H        -2.77900379948220    3.91672502586531   -2.87602302261837
C        -6.43864448943836    3.55693764771103   -4.05585540404040
H        -6.49403483923764    1.77043766300884   -2.87485382943089
C        -5.67037682251142    4.63222117860237   -4.48132600244160
H        -3.75621014445694    5.59571542240409   -4.38568866823142
H        -7.46115404593145    3.45525581256967   -4.38452251039940
H        -6.09654064749108    5.36951188357861   -5.14351000190680
23
 energy: -34.040744937228 xtb: 6.4.1 (afa7bdf)
C        -3.09444461661346   -2.23394102755377    0.23694879244236
C        -1.94120696057304   -1.82137366580002   -0.40097676009309
C        -1.00659673357067   -1.02849319237179    0.23538951790674
C        -1.20985747429637   -0.61376402040227    1.56871144147880
C        -2.35941714500770   -1.09388525084367    2.02988591171500
C        -3.35049452505038   -1.84969031783964    1.57031008525740
H        -3.83061946687559   -2.85528517498127   -0.25056006565114
H        -1.76456324058473   -2.12864271838185   -1.42184032228795
H        -0.10096296012570   -0.70191640602540   -0.25334562375945
H        -0.49766104166799    0.00283008699955    2.08801244408796
H        -4.23999041960490   -2.15785505758099    2.09080705332932
I        -3.74586784176089    1.30268755683407   -1.50858750917204
C        -4.58452462854361    2.75362270674021   -2.80149895087416
C        -3.80134737567451    3.81996159762154   -3.21256679449810
C        -5.89970066844633    2.60767823076094   -3.21190646600309
C        -4.35611294064976    4.76290244819600   -4.05868283843751
H        -2.77897013721752    3.91666254673875   -2.88143338546774
C        -6.43987101908311    3.55905117628477   -4.05802711711418
H        -6.49400058942183    1.77037489622963   -2.88026459495790
C        -5.67205671409920    4.63512724640090   -4.48232029969128
H        -3.75777876988471    5.59843222785680   -4.38697149030774
H        -7.46272540599723    3.45797040972521   -4.38580572761294
H        -6.09892932514759    5.37364570139384   -5.14267730021822
23
 energy: -34.040738844703 xtb: 6.4.1 (afa7bdf)
C        -3.09505990738926   -2.23287701048600    0.23973046759556
C        -1.94387185750937   -1.81675713874689   -0.39959474196148
C        -1.00720803410837   -1.02742705193085    0.23817099270383
C        -1.20617614509651   -0.62014621980333    1.57442650811465
C        -2.35425693851042   -1.10281437950719    2.03666808671977
C        -3.34680198760686   -1.85606588610283    1.57602535427321
H        -3.83281330453590   -2.85146295505342   -0.24889214621432
H        -1.77052661459775   -2.11831632735340   -1.42272068871754
H        -0.10317499574289   -0.69810501276118   -0.25167804575156
H        -0.49231251128806   -0.00643889518728    2.09486397041502
H        -4.23463006786958   -2.16711696456101    2.09765895327471
I        -3.74460373677776    1.30049370242334   -1.51730192687984
C        -4.58448524723805    2.75355043549955   -2.80696863755933
C        -3.80171332104341    3.82059658789776   -3.21699524676635
C        -5.90007095171276    2.60831048072141   -3.21633514049893
C        -4.35732745064745    4.76500933813147   -4.06090497076897
H        -2.77899552282682    3.91670219564662   -2.88674007193140
C        -6.44109154660561    3.56115435488819   -4.06024947052544
H        -6.49402556870556    1.77041437346857   -2.88557168510962
C        -5.67370690517494    4.63798179380219   -4.48342160427420
H        -3.75932339452171    5.60110727781510   -4.38834782642278
H        -7.46427277282110    3.46064346433673   -4.38718246483254
H        -6.10125121756664    5.37766383686400   -5.14203966481137
23
 energy: -34.040732764415 xtb: 6.4.1 (afa7bdf)
C        -3.09566301787685   -2.23183342936869    0.24251741316873
C        -1.94653552043331   -1.81214259353238   -0.39818545516808
C        -1.00780758641024   -1.02638170121607    0.24095779680553
C        -1.20245953330932   -0.62658980757193    1.58010097365876
C        -2.34905420087606   -1.11181719220286    2.04339331126708
C        -3.34307396197593   -1.86250261534991    1.58169995940877
H        -3.83500365989116   -2.84764618458049   -0.24720161253766
H        -1.77650607500187   -2.10796184787336   -1.42353816351596
H        -0.10538384698443   -0.69429942665815   -0.24998774804201
H        -0.48691923243499   -0.01578568273890    2.10165726539963
H        -4.22922481399266   -2.17645638898187    2.10445250940942
I        -3.74345938562353    1.29850709510452   -1.52576365467371
C        -4.58450386988640    2.75357851189947   -2.81233420463242
C        -3.80211691632040    3.82129659518516   -3.22136816586825
C        -5.90047882450495    2.60900784219727   -3.22070829590821
C        -4.35853662142293    4.76710676796130   -4.06317460171717
H        -2.77907590084228    3.91683705614206   -2.89194991818114
C        -6.44230661669464    3.56324820056544   -4.06251933676865
H        -6.49410565288333    1.77054910172886   -2.89078196642970
C        -5.67532963835838    4.64078876051887   -4.48462312978917
H        -3.76084589054850    5.60374388152740   -4.38981171054367
H        -7.46579797613323    3.46327819748036   -4.38864678072221
H        -6.10351125749148    5.38157485976544   -5.14158448454871
23
 energy: -34.040726730442 xtb: 6.4.1 (afa7bdf)
C        -3.09624474550202   -2.23082774242776    0.24531629244482
C        -1.94918218473684   -1.80755733569684   -0.39673678258801
C        -1.00838488878367   -1.02537382032307    0.24375658052599
C        -1.19870995126032   -0.63309018709109    1.58573293206825
C        -2.34380857719631   -1.12089431236358    2.05006030031303
C        -3.33931326734213   -1.86899623360792    1.58733201052373
H        -3.83719094016881   -2.84383682127056   -0.24548766549797
H        -1.78250219508080   -2.09757830647618   -1.42429225631342
H        -0.10758764951244   -0.69050024323447   -0.24827395565518
H        -0.48148735491639   -0.02520064744599    2.10838922397612
H        -4.22377989670403   -2.18586325038487    2.11118464960339
I        -3.74244199309197    1.29674021006549   -1.53395836440900
C        -4.58458961961377    2.75372278167079   -2.81757564150510
C        -3.80256062718250    3.82206556397353   -3.22568406718796
C        -5.90092643783341    2.60977441416821   -3.22502443593138
C        -4.35973959541498    4.76919341083941   -4.06549992884764
H        -2.77920348785234    3.91705358141112   -2.89708817756070
C        -6.44351549879545    3.56533129037787   -4.06484490274381
H        -6.49423299786106    1.77076556709272   -2.89592068426730
C        -5.67692540752192    4.64354899141273   -4.48593057036115
H        -3.76234913482003    5.60634762865362   -4.39136210313784
H        -7.46730441056576    3.46587989660034   -4.39019763025033
H        -6.10571913813996    5.38539556405805   -5.14129482312741
23
 energy: -34.040720709688 xtb: 6.4.1 (afa7bdf)
C        -3.09682376886485   -2.22982467022038    0.24811789805456
C        -1.95184150849443   -1.80295004595359   -0.39526668110590
C        -1.00896119639805   -1.02436958211435    0.24655811232724
C        -1.19492642234363   -0.63965002414696    1.59132652451691
C        -2.33852404537415   -1.13003884611951    2.05667025438793
C        -3.33551806591964   -1.87554894565408    1.59292567502692
H        -3.83937435994005   -2.84003105075979   -0.24374683766747
H        -1.78851119988261   -2.08717226808605   -1.42497588066184
H        -0.10979014196785   -0.68670619944938   -0.24653324399876
H        -0.47600980899646   -0.03469377700977    2.11506466618554
H        -4.21829017085790   -2.19534870361547    2.11786023641452
I        -3.74152222517261    1.29514229475558   -1.54194479483007
C        -4.58471616030386    2.75393758822653   -2.82274973483237
C        -3.80303515908955    3.82288796885455   -3.22995418712614
C        -5.90140501285185    2.61059440262113   -3.22929482668300
C        -4.36094072685750    4.77127636088646   -4.06785851963315
H        -2.77938641370854    3.91736583503960   -2.90211919565342
C        -6.44472215068277    3.56741096948031   -4.06720376281650
H        -6.49441568832186    1.77107784691959   -2.90095220441011
C        -5.67849894276096    4.64627071501715   -4.48732013236443
H        -3.76383189815269    5.60891504901045   -4.39299147193811
H        -7.46878967311391    3.46844575475673   -4.39182749715152
H        -6.10786525984115    5.38910932756272   -5.14118439596975
23
 energy: -34.040714735096 xtb: 6.4.1 (afa7bdf)
C        -3.09739152254343   -2.22884049190730    0.25092976388391
C        -1.95449918922569   -1.79834548736508   -0.39376268217609
C        -1.00952669475401   -1.02338453527790    0.24936992040757
C        -1.19111224958663   -0.64626335539889    1.59688043797487
C        -2.33320380678669   -1.13924525102102    2.06322367305741
C        -3.33169187255529   -1.88215491748041    1.59847964363895
H        -3.84155287350044   -2.83623316425587   -0.24197629616946
H        -1.79453120606911   -2.07674699958948   -1.42558555724628
H        -0.11198814168394   -0.68292033523737   -0.24476279046203
H        -0.47049362538128   -0.04425393512490    2.12168080234865
H        -4.21276176592525   -2.20490110290120    2.12447648733168
I        -3.74070001641608    1.29371326672812   -1.54972725526830
C        -4.58489224135572    2.75423811095977   -2.82783725061308
C        -3.80354184057350    3.82376615137547   -3.23418028631279
C        -5.90191589897996    2.61147011805943   -3.23352121592207
C        -4.36213845932569    4.77335344763924   -4.07025979636226
H        -2.77961577237854    3.91775871059583   -2.90707147991155
C        -6.44592547135241    3.56948478835109   -4.06960532754293
H        -6.49464511402476    1.77147067063808   -2.90590504350025
C        -5.68005125958616    4.64895567368985   -4.48879583769676
H        -3.76529845796101    5.61145452442622   -4.39469442658144
H        -7.47025888148503    3.47098367452960   -4.39353099974068
H        -6.10996363844631    5.39274043856817   -5.14122448306600
23
 energy: -34.040708814656 xtb: 6.4.1 (afa7bdf)
C        -3.09794810629520   -2.22787514882345    0.25375327812293
C        -1.95715403333955   -1.79374572712950   -0.39222225722290
C        -1.01008138626682   -1.02241856447925    0.25219339225374
C        -1.18726926362891   -0.65292703190121    1.60239455755028
C        -2.32784869448424   -1.14851208741684    2.06972037615751
C        -3.32783650040424   -1.88881099340967    1.60399380277343
H        -3.84372707834804   -2.83244215925970   -0.24017499109514
H        -1.80056187640817   -2.06630308573092   -1.42611928637233
H        -0.11418222018628   -0.67914163226082   -0.24296154642065
H        -0.46494151310002   -0.05387649419899    2.12823687840707
H        -4.20719733572257   -2.21451579485351    2.13103265128807
I        -3.73997013937473    1.29244414207567   -1.55731647749042
C        -4.58511374292727    2.75461721642608   -2.83284702847954
C        -3.80407867530099    3.82469661187094   -3.23836563995751
C        -5.90245706246481    2.61239807539739   -3.23770687734774
C        -4.36333402259649    4.77542674185027   -4.07269960878638
H        -2.77988834219424    3.91822648521739   -2.91195113803058
C        -6.44712664270662    3.57155483796854   -4.07204544622851
H        -6.49491795358852    1.77193839242686   -2.91078531958293