 Entering Gaussian System, Link 0=g16
 Input=calc.com
 Output=calc.log
 Initial command:
 /binaries/g16/l1.exe "/calcus/scratch/scr/20/Gau-3487.inp" -scrdir="/calcus/scratch/scr/20/"
 Entering Link 1 = /binaries/g16/l1.exe PID=      3489.
  
 Copyright (c) 1988-2019, Gaussian, Inc.  All Rights Reserved.
  
 This is part of the Gaussian(R) 16 program.  It is based on
 the Gaussian(R) 09 system (copyright 2009, Gaussian, Inc.),
 the Gaussian(R) 03 system (copyright 2003, Gaussian, Inc.),
 the Gaussian(R) 98 system (copyright 1998, Gaussian, Inc.),
 the Gaussian(R) 94 system (copyright 1995, Gaussian, Inc.),
 the Gaussian 92(TM) system (copyright 1992, Gaussian, Inc.),
 the Gaussian 90(TM) system (copyright 1990, Gaussian, Inc.),
 the Gaussian 88(TM) system (copyright 1988, Gaussian, Inc.),
 the Gaussian 86(TM) system (copyright 1986, Carnegie Mellon
 University), and the Gaussian 82(TM) system (copyright 1983,
 Carnegie Mellon University). Gaussian is a federally registered
 trademark of Gaussian, Inc.
  
 This software contains proprietary and confidential information,
 including trade secrets, belonging to Gaussian, Inc.
  
 This software is provided under written license and may be
 used, copied, transmitted, or stored only in accord with that
 written license.
  
 The following legend is applicable only to US Government
 contracts under FAR:
  
                    RESTRICTED RIGHTS LEGEND
  
 Use, reproduction and disclosure by the US Government is
 subject to restrictions as set forth in subparagraphs (a)
 and (c) of the Commercial Computer Software - Restricted
 Rights clause in FAR 52.227-19.
  
 Gaussian, Inc.
 340 Quinnipiac St., Bldg. 40, Wallingford CT 06492
  
  
 ---------------------------------------------------------------
 Warning -- This program may not be used in any manner that
 competes with the business of Gaussian, Inc. or will provide
 assistance to any competitor of Gaussian, Inc.  The licensee
 of this program is prohibited from giving any competitor of
 Gaussian, Inc. access to this program.  By using this program,
 the user acknowledges that Gaussian, Inc. is engaged in the
 business of creating and licensing software in the field of
 computational chemistry and represents and warrants to the
 licensee that it is not a competitor of Gaussian, Inc. and that
 it will not use this program in any manner prohibited above.
 ---------------------------------------------------------------
  

 Cite this work as:
 Gaussian 16, Revision C.01,
 M. J. Frisch, G. W. Trucks, H. B. Schlegel, G. E. Scuseria, 
 M. A. Robb, J. R. Cheeseman, G. Scalmani, V. Barone, 
 G. A. Petersson, H. Nakatsuji, X. Li, M. Caricato, A. V. Marenich, 
 J. Bloino, B. G. Janesko, R. Gomperts, B. Mennucci, H. P. Hratchian, 
 J. V. Ortiz, A. F. Izmaylov, J. L. Sonnenberg, D. Williams-Young, 
 F. Ding, F. Lipparini, F. Egidi, J. Goings, B. Peng, A. Petrone, 
 T. Henderson, D. Ranasinghe, V. G. Zakrzewski, J. Gao, N. Rega, 
 G. Zheng, W. Liang, M. Hada, M. Ehara, K. Toyota, R. Fukuda, 
 J. Hasegawa, M. Ishida, T. Nakajima, Y. Honda, O. Kitao, H. Nakai, 
 T. Vreven, K. Throssell, J. A. Montgomery, Jr., J. E. Peralta, 
 F. Ogliaro, M. J. Bearpark, J. J. Heyd, E. N. Brothers, K. N. Kudin, 
 V. N. Staroverov, T. A. Keith, R. Kobayashi, J. Normand, 
 K. Raghavachari, A. P. Rendell, J. C. Burant, S. S. Iyengar, 
 J. Tomasi, M. Cossi, J. M. Millam, M. Klene, C. Adamo, R. Cammi, 
 J. W. Ochterski, R. L. Martin, K. Morokuma, O. Farkas, 
 J. B. Foresman, and D. J. Fox, Gaussian, Inc., Wallingford CT, 2019.
 
 ******************************************
 Gaussian 16:  ES64L-G16RevC.01  3-Jul-2019
                29-May-2022 
 ******************************************
 %chk=in.chk
 %nproc=4
 Will use up to    4 processors via shared memory.
 %mem=2000MB
 ------------------------
 #p opt(modredundant) AM1
 ------------------------
 1/18=120,19=15,26=1,38=1/1,3;
 2/9=110,12=2,17=6,18=5,40=1/2;
 3/5=2,25=1,41=700000,71=1/1,2,3;
 4/35=1/1;
 5/5=2,35=1,38=5/2;
 6/7=2,8=2,9=2,10=2,28=1/1;
 7//1,2,3,16;
 1/18=20,19=15,26=1/3(2);
 2/9=110/2;
 99//99;
 2/9=110/2;
 3/5=2,25=1,41=700000,71=1,135=20/1,2,3;
 4/5=5,16=3,35=1/1;
 5/5=2,35=1,38=5/2;
 7//1,2,3,16;
 1/18=20,19=15,26=1/3(-5);
 2/9=110/2;
 6/7=2,8=2,9=2,10=2,19=2,28=1/1;
 99/9=1/99;
 Leave Link    1 at Sun May 29 19:29:42 2022, MaxMem=   262144000 cpu:               0.1 elap:               0.0
 (Enter /binaries/g16/l101.exe)
 -----------------------
 File created by ccinput
 -----------------------
 Symbolic Z-matrix:
 Charge =  0 Multiplicity = 1
 C                     4.2918    3.6588    0. 
 H                     4.6485    2.65      0. 
 H                     4.6485    4.1632    0.8707 
 H                     4.6485    4.1632   -0.8797 
 H                     3.2218    3.6588    0. 
 
 The following ModRedundant input section has been read:
 D       1       2       3       4 S  10 2.5300                                
 
 ITRead=  0  0  0  0  0
 MicOpt= -1 -1 -1 -1 -1
 NAtoms=      5 NQM=        5 NQMF=       0 NMMI=      0 NMMIF=      0
                NMic=       0 NMicF=      0.
                    Isotopes and Nuclear Properties:
 (Nuclear quadrupole moments (NQMom) in fm**2, nuclear magnetic moments (NMagM)
  in nuclear magnetons)

  Atom         1           2           3           4           5
 IAtWgt=          12           1           1           1           1
 AtmWgt=  12.0000000   1.0078250   1.0078250   1.0078250   1.0078250
 NucSpn=           0           1           1           1           1
 AtZEff=  -0.0000000  -0.0000000  -0.0000000  -0.0000000  -0.0000000
 NQMom=    0.0000000   0.0000000   0.0000000   0.0000000   0.0000000
 NMagM=    0.0000000   2.7928460   2.7928460   2.7928460   2.7928460
 AtZNuc=   6.0000000   1.0000000   1.0000000   1.0000000   1.0000000
 Leave Link  101 at Sun May 29 19:29:42 2022, MaxMem=   262144000 cpu:               0.5 elap:               0.1
 (Enter /binaries/g16/l103.exe)

 GradGradGradGradGradGradGradGradGradGradGradGradGradGradGradGradGradGrad
 Berny optimization.
 Initialization pass.
                           ----------------------------
                           !    Initial Parameters    !
                           ! (Angstroms and Degrees)  !
 --------------------------                            --------------------------
 ! Name  Definition              Value          Derivative Info.                !
 --------------------------------------------------------------------------------
 ! R1    R(1,2)                  1.07           estimate D2E/DX2                !
 ! R2    R(1,3)                  1.0676         estimate D2E/DX2                !
 ! R3    R(1,4)                  1.075          estimate D2E/DX2                !
 ! R4    R(1,5)                  1.07           estimate D2E/DX2                !
 ! A1    A(2,1,3)              109.5151         estimate D2E/DX2                !
 ! A2    A(2,1,4)              109.3762         estimate D2E/DX2                !
 ! A3    A(2,1,5)              109.473          estimate D2E/DX2                !
 ! A4    A(3,1,4)              109.5644         estimate D2E/DX2                !
 ! A5    A(3,1,5)              109.5186         estimate D2E/DX2                !
 ! A6    A(4,1,5)              109.3798         estimate D2E/DX2                !
 ! D1    D(2,1,4,3)           -120.0525         estimate D2E/DX2                !
 ! D2    D(2,1,5,3)            120.0839         estimate D2E/DX2                !
 ! D3    D(2,1,5,4)           -119.829          estimate D2E/DX2                !
 ! D4    D(3,1,5,4)            120.0871         estimate D2E/DX2                !
 ! D5    D(1,2,3,4)            -35.3356         Scan                            !
 --------------------------------------------------------------------------------
 Trust Radius=3.00D-01 FncErr=1.00D-07 GrdErr=1.00D-07 EigMax=2.50D+02 EigMin=1.00D-04
 Number of optimizations in scan=  11
 Number of steps in this run=     25 maximum allowed number of steps=    100.
 GradGradGradGradGradGradGradGradGradGradGradGradGradGradGradGradGradGrad

 Leave Link  103 at Sun May 29 19:29:42 2022, MaxMem=   262144000 cpu:               0.0 elap:               0.0
 (Enter /binaries/g16/l202.exe)
                          Input orientation:                          
 ---------------------------------------------------------------------
 Center     Atomic      Atomic             Coordinates (Angstroms)
 Number     Number       Type             X           Y           Z
 ---------------------------------------------------------------------
      1          6           0        4.291800    3.658800    0.000000
      2          1           0        4.648500    2.650000    0.000000
      3          1           0        4.648500    4.163200    0.870700
      4          1           0        4.648500    4.163200   -0.879700
      5          1           0        3.221800    3.658800    0.000000
 ---------------------------------------------------------------------
                    Distance matrix (angstroms):
                    1          2          3          4          5
     1  C    0.000000
     2  H    1.070006   0.000000
     3  H    1.067601   1.745822   0.000000
     4  H    1.074954   1.750327   1.750400   0.000000
     5  H    1.070000   1.747327   1.745855   1.750361   0.000000
 Stoichiometry    CH4
 Framework group  C1[X(CH4)]
 Deg. of freedom     9
 Full point group                 C1      NOp   1
 Largest Abelian subgroup         C1      NOp   1
 Largest concise Abelian subgroup C1      NOp   1
                         Standard orientation:                         
 ---------------------------------------------------------------------
 Center     Atomic      Atomic             Coordinates (Angstroms)
 Number     Number       Type             X           Y           Z
 ---------------------------------------------------------------------
      1          6           0       -0.000767    0.000001    0.000472
      2          1           0       -0.325680   -0.869163   -0.532348
      3          1           0       -0.412253   -0.010991    0.985525
      4          1           0        1.072605    0.002075    0.058743
      5          1           0       -0.330072    0.878070   -0.514750
 ---------------------------------------------------------------------
 Rotational constants (GHZ):         164.4303219         163.9529333         163.7655362
 Leave Link  202 at Sun May 29 19:29:42 2022, MaxMem=   262144000 cpu:               0.0 elap:               0.0
 (Enter /binaries/g16/l301.exe)
 Standard basis: VSTO-6G (5D, 7F)
 Ernie: Thresh=  0.10000D-02 Tol=  0.10000D-05 Strict=F.
  NNHCO=     0 NNPyr=     0 NCTC=     0               EPep=         0.000000000
    EC=         6.919995759  ECS=         0.582582337   EG=         0.068208026
   EHC=         0.000000000  EAt=        -6.115142680  AtH=         0.604449838
 EPDDG=         0.000000000  ECC=         7.570786122 EAtT=         6.719592518
 There are     8 symmetry adapted cartesian basis functions of A   symmetry.
 There are     8 symmetry adapted basis functions of A   symmetry.
     8 basis functions,    48 primitive gaussians,     8 cartesian basis functions
     4 alpha electrons        4 beta electrons
       nuclear repulsion energy        14.2903786404 Hartrees.
 IExCor=    0 DFT=F Ex=HF Corr=None ExCW=0 ScaHFX=  1.000000
 ScaDFX=  1.000000  1.000000  1.000000  1.000000 ScalE2=  1.000000  1.000000
 IRadAn=      5 IRanWt=     -1 IRanGd=            0 ICorTp=0 IEmpDi=  4
 Integral buffers will be    131072 words long.
 Regular integral format.
 Two-electron integral symmetry is turned off.
 Leave Link  301 at Sun May 29 19:29:42 2022, MaxMem=   262144000 cpu:               0.1 elap:               0.0
 (Enter /binaries/g16/l302.exe)
 Do NDO integrals.
 NPDir=0 NMtPBC=     1 NCelOv=     1 NCel=       1 NClECP=     1 NCelD=      1
         NCelK=      1 NCelE2=     1 NClLst=     1 CellRange=     0.0.
 One-electron integrals computed using PRISM.
 NBasis=     8 RedAO= F EigKep=  0.00D+00  NBF=     8
 NBsUse=     8 1.00D-04 EigRej=  0.00D+00 NBFU=     8
 Leave Link  302 at Sun May 29 19:29:43 2022, MaxMem=   262144000 cpu:               0.1 elap:               0.0
 (Enter /binaries/g16/l303.exe)
 DipDrv:  MaxL=1.
 Leave Link  303 at Sun May 29 19:29:43 2022, MaxMem=   262144000 cpu:               0.0 elap:               0.0
 (Enter /binaries/g16/l401.exe)
 Simple Huckel Guess.
 JPrj=0 DoOrth=F DoCkMO=F.
 Leave Link  401 at Sun May 29 19:29:43 2022, MaxMem=   262144000 cpu:               0.1 elap:               0.0
 (Enter /binaries/g16/l502.exe)
 Keep J ints in memory in canonical form, NReq=859348.
 FoFCou: FMM=F IPFlag=           0 FMFlag=           0 FMFlg1=           0
         NFxFlg=           0 DoJE=F BraDBF=F KetDBF=F FulRan=T
         wScrn=  0.000000 ICntrl=       600 IOpCl=  2 I1Cent=           0 NGrid=           0
         NMat0=    1 NMatS0=     14 NMatT0=    0 NMatD0=    1 NMtDS0=    0 NMtDT0=    0
 Symmetry not used in FoFCou.
 Two-electron integral symmetry not used.
 Closed shell SCF:
 Using DIIS extrapolation, IDIIS=  1040.
 Overlap will be assumed to be unity.
 NGot=   262144000 LenX=   262083483 LenY=   262082601
 Requested convergence on RMS density matrix=1.00D-08 within 128 cycles.
 Requested convergence on MAX density matrix=1.00D-06.
 Requested convergence on             energy=1.00D-06.
 No special actions if energy rises.

 Cycle   1  Pass 1  IDiag  1:
 E= 0.452729332967827E-01
 DIIS: error= 4.04D-02 at cycle   1 NSaved=   1.
 NSaved= 1 IEnMin= 1 EnMin= 0.452729332967827E-01 IErMin= 1 ErrMin= 4.04D-02
 ErrMax= 4.04D-02  0.00D+00 EMaxC= 1.00D-01 BMatC= 2.62D-02 BMatP= 2.62D-02
 IDIUse=3 WtCom= 5.96D-01 WtEn= 4.04D-01
 Coeff-Com:  0.100D+01
 Coeff-En:   0.100D+01
 Coeff:      0.100D+01
 GapD=    2.000 DampG=2.000 DampE=0.500 DampFc=1.0000 IDamp=-1.
 RMSDP=2.26D-02 MaxDP=1.27D-01              OVMax= 0.00D+00

 Cycle   2  Pass 1  IDiag  1:
 E=-0.609907068839100E-02 Delta-E=       -0.051372003985 Rises=F Damp=F
 DIIS: error= 9.25D-03 at cycle   2 NSaved=   2.
 NSaved= 2 IEnMin= 2 EnMin=-0.609907068839100E-02 IErMin= 2 ErrMin= 9.25D-03
 ErrMax= 9.25D-03  0.00D+00 EMaxC= 1.00D-01 BMatC= 1.39D-03 BMatP= 2.62D-02
 IDIUse=3 WtCom= 9.08D-01 WtEn= 9.25D-02
 Coeff-Com: -0.298D+00 0.130D+01
 Coeff-En:   0.000D+00 0.100D+01
 Coeff:     -0.270D+00 0.127D+01
 RMSDP=6.60D-03 MaxDP=3.57D-02 DE=-5.14D-02 OVMax= 0.00D+00

 Cycle   3  Pass 1  IDiag  3:
 E=-0.894858455685110E-02 Delta-E=       -0.002849513868 Rises=F Damp=F
 DIIS: error= 3.66D-04 at cycle   3 NSaved=   3.
 NSaved= 3 IEnMin= 3 EnMin=-0.894858455685110E-02 IErMin= 3 ErrMin= 3.66D-04
 ErrMax= 3.66D-04  0.00D+00 EMaxC= 1.00D-01 BMatC= 2.83D-06 BMatP= 1.39D-03
 IDIUse=3 WtCom= 9.96D-01 WtEn= 3.66D-03
 Coeff-Com:  0.291D+00-0.131D+01 0.202D+01
 Coeff-En:   0.000D+00 0.000D+00 0.100D+01
 Coeff:      0.290D+00-0.131D+01 0.202D+01
 Gap=     0.672 Goal=   None    Shift=    0.000
 RMSDP=7.89D-04 MaxDP=2.57D-03 DE=-2.85D-03 OVMax= 2.55D-03

 Cycle   4  Pass 1  IDiag  3:
 E=-0.896292349164618E-02 Delta-E=       -0.000014338935 Rises=F Damp=F
 DIIS: error= 1.48D-05 at cycle   4 NSaved=   4.
 NSaved= 4 IEnMin= 4 EnMin=-0.896292349164618E-02 IErMin= 4 ErrMin= 1.48D-05
 ErrMax= 1.48D-05  0.00D+00 EMaxC= 1.00D-01 BMatC= 2.69D-09 BMatP= 2.83D-06
 IDIUse=1 WtCom= 1.00D+00 WtEn= 0.00D+00
 Coeff-Com: -0.362D-02 0.179D-01-0.327D-01 0.102D+01
 Coeff:     -0.362D-02 0.179D-01-0.327D-01 0.102D+01
 Gap=     0.673 Goal=   None    Shift=    0.000
 RMSDP=9.48D-06 MaxDP=5.05D-05 DE=-1.43D-05 OVMax= 5.17D-05

 Cycle   5  Pass 1  IDiag  3:
 E=-0.896292896141659E-02 Delta-E=       -0.000000005470 Rises=F Damp=F
 DIIS: error= 5.64D-07 at cycle   5 NSaved=   5.
 NSaved= 5 IEnMin= 5 EnMin=-0.896292896141659E-02 IErMin= 5 ErrMin= 5.64D-07
 ErrMax= 5.64D-07  0.00D+00 EMaxC= 1.00D-01 BMatC= 7.88D-12 BMatP= 2.69D-09
 IDIUse=1 WtCom= 1.00D+00 WtEn= 0.00D+00
 Coeff-Com:  0.375D-02-0.175D-01 0.288D-01-0.362D+00 0.135D+01
 Coeff:      0.375D-02-0.175D-01 0.288D-01-0.362D+00 0.135D+01
 Gap=     0.673 Goal=   None    Shift=    0.000
 RMSDP=7.38D-07 MaxDP=1.62D-06 DE=-5.47D-09 OVMax= 0.00D+00

 Cycle   6  Pass 1  IDiag  3:
 E=-0.896292898503859E-02 Delta-E=       -0.000000000024 Rises=F Damp=F
 DIIS: error= 1.82D-07 at cycle   6 NSaved=   6.
 NSaved= 6 IEnMin= 6 EnMin=-0.896292898503859E-02 IErMin= 6 ErrMin= 1.82D-07
 ErrMax= 1.82D-07  0.00D+00 EMaxC= 1.00D-01 BMatC= 6.70D-13 BMatP= 7.88D-12
 IDIUse=1 WtCom= 1.00D+00 WtEn= 0.00D+00
 Coeff-Com: -0.756D-03 0.382D-02-0.715D-02 0.231D+00-0.933D+00 0.171D+01
 Coeff:     -0.756D-03 0.382D-02-0.715D-02 0.231D+00-0.933D+00 0.171D+01
 Gap=     0.673 Goal=   None    Shift=    0.000
 RMSDP=2.69D-07 MaxDP=7.65D-07 DE=-2.36D-11 OVMax= 7.82D-07

 Cycle   7  Pass 1  IDiag  3:
 E=-0.896292898716844E-02 Delta-E=       -0.000000000002 Rises=F Damp=F
 DIIS: error= 3.48D-08 at cycle   7 NSaved=   7.
 NSaved= 7 IEnMin= 7 EnMin=-0.896292898716844E-02 IErMin= 7 ErrMin= 3.48D-08
 ErrMax= 3.48D-08  0.00D+00 EMaxC= 1.00D-01 BMatC= 1.69D-14 BMatP= 6.70D-13
 IDIUse=1 WtCom= 1.00D+00 WtEn= 0.00D+00
 Coeff-Com:  0.251D-03-0.131D-02 0.260D-02-0.101D+00 0.409D+00-0.756D+00
 Coeff-Com:  0.145D+01
 Coeff:      0.251D-03-0.131D-02 0.260D-02-0.101D+00 0.409D+00-0.756D+00
 Coeff:      0.145D+01
 Gap=     0.673 Goal=   None    Shift=    0.000
 RMSDP=3.18D-08 MaxDP=1.65D-07 DE=-2.13D-12 OVMax= 1.68D-07

 Cycle   8  Pass 1  IDiag  3:
 E=-0.896292898719508E-02 Delta-E=       -0.000000000000 Rises=F Damp=F
 DIIS: error= 1.05D-08 at cycle   8 NSaved=   8.
 NSaved= 8 IEnMin= 8 EnMin=-0.896292898719508E-02 IErMin= 8 ErrMin= 1.05D-08
 ErrMax= 1.05D-08  0.00D+00 EMaxC= 1.00D-01 BMatC= 1.73D-15 BMatP= 1.69D-14
 IDIUse=1 WtCom= 1.00D+00 WtEn= 0.00D+00
 Coeff-Com: -0.584D-05 0.590D-04-0.193D-03 0.170D-01-0.688D-01 0.127D+00
 Coeff-Com: -0.359D+00 0.128D+01
 Coeff:     -0.584D-05 0.590D-04-0.193D-03 0.170D-01-0.688D-01 0.127D+00
 Coeff:     -0.359D+00 0.128D+01
 Gap=     0.673 Goal=   None    Shift=    0.000
 RMSDP=7.69D-09 MaxDP=4.10D-08 DE=-2.66D-14 OVMax= 4.19D-08

 Cycle   9  Pass 2  IDiag  1:
 SCF Done:  E(RAM1) = -0.896292898720E-02 A.U. after    9 cycles
            NFock=  8  Conv=0.77D-08     -V/T= 0.9991
 KE=-9.923828799827D+00 PE=-1.351118057988D+01 EE= 9.135667810355D+00
 Leave Link  502 at Sun May 29 19:29:43 2022, MaxMem=   262144000 cpu:               0.1 elap:               0.0
 (Enter /binaries/g16/l601.exe)
 Copying SCF densities to generalized density rwf, IOpCl= 0 IROHF=0.

 **********************************************************************

            Population analysis using the SCF Density.

 **********************************************************************

 Orbital symmetries:
       Occupied  (A) (A) (A) (A)
       Virtual   (A) (A) (A) (A)
 The electronic state is 1-A.
 Alpha  occ. eigenvalues --   -1.09135  -0.49733  -0.49693  -0.49623
 Alpha virt. eigenvalues --    0.17640   0.17713   0.17752   0.20334
          Condensed to atoms (all electrons):
               1          2          3          4          5
     1  C    4.258397   0.000000   0.000000   0.000000   0.000000
     2  H    0.000000   0.935473   0.000000   0.000000   0.000000
     3  H    0.000000   0.000000   0.935243   0.000000   0.000000
     4  H    0.000000   0.000000   0.000000   0.935423   0.000000
     5  H    0.000000   0.000000   0.000000   0.000000   0.935464
 Mulliken charges:
               1
     1  C   -0.258397
     2  H    0.064527
     3  H    0.064757
     4  H    0.064577
     5  H    0.064536
 Sum of Mulliken charges =  -0.00000
 Mulliken charges with hydrogens summed into heavy atoms:
               1
     1  C   -0.000000
 Charge=             -0.0000 electrons
 Dipole moment (field-independent basis, Debye):
    X=              0.0008    Y=             -0.0000    Z=             -0.0007  Tot=              0.0011
 N-N= 1.429037864037D+01 E-N=-1.351118053997D+01  KE=-9.923828799827D+00
 Leave Link  601 at Sun May 29 19:29:43 2022, MaxMem=   262144000 cpu:               0.1 elap:               0.0
 (Enter /binaries/g16/l701.exe)
 ... and contract with generalized density number  0.
 Compute integral first derivatives.
 Leave Link  701 at Sun May 29 19:29:43 2022, MaxMem=   262144000 cpu:               0.1 elap:               0.0
 (Enter /binaries/g16/l702.exe)
 L702 exits ... SP integral derivatives will be done elsewhere.
 Leave Link  702 at Sun May 29 19:29:43 2022, MaxMem=   262144000 cpu:               0.1 elap:               0.0
 (Enter /binaries/g16/l703.exe)
 Integral derivatives from FoFJK, PRISM(SPDF).
 Compute integral first derivatives, UseDBF=F ICtDFT=           0.
 Calling FoFJK, ICntrl=      2127 FMM=F ISym2X=0 I1Cent= 0 IOpClX= 0 NMat=1 NMatS=1 NMatT=0.
 FoFJK:  IHMeth= 8 ICntrl=    2127 DoSepK=F KAlg= 0 I1Cent=           0 FoldK=F
 IRaf=         0 NMat=       1 IRICut=       1 DoRegI=T DoRafI=F ISym2E= 0 IDoP0=3 IntGTp=3.
 FoFCou: FMM=F IPFlag=           0 FMFlag=      100000 FMFlg1=         800
         NFxFlg=           0 DoJE=F BraDBF=F KetDBF=F FulRan=T
         wScrn=  0.000000 ICntrl=      2127 IOpCl=  0 I1Cent=           0 NGrid=           0
         NMat0=    1 NMatS0=      1 NMatT0=    0 NMatD0=    1 NMtDS0=    0 NMtDT0=    0
 Symmetry not used in FoFCou.
 Leave Link  703 at Sun May 29 19:29:43 2022, MaxMem=   262144000 cpu:               0.1 elap:               0.0
 (Enter /binaries/g16/l716.exe)
 Dipole        = 3.24043308D-04-2.85092585D-06-2.93570403D-04
 ***** Axes restored to original set *****
 -------------------------------------------------------------------
 Center     Atomic                   Forces (Hartrees/Bohr)
 Number     Number              X              Y              Z
 -------------------------------------------------------------------
      1        6           0.000515854    0.000715891   -0.004261023
      2        1           0.011382394   -0.032128215   -0.000037722
      3        1           0.012049670    0.017045580    0.029095296
      4        1           0.010137481    0.014341509   -0.024758843
      5        1          -0.034085398    0.000025235   -0.000037709
 -------------------------------------------------------------------
 Cartesian Forces:  Max     0.034085398 RMS     0.017409316
 Leave Link  716 at Sun May 29 19:29:43 2022, MaxMem=   262144000 cpu:               0.0 elap:               0.0
 (Enter /binaries/g16/l103.exe)

 GradGradGradGradGradGradGradGradGradGradGradGradGradGradGradGradGradGrad
 Berny optimization.
 FormGI is forming the generalized inverse of G from B-inverse, IUseBI=4.
 Internal  Forces:  Max     0.035788610 RMS     0.017372706
 Search for a local minimum.
 Step number   1 out of a maximum of   25 on scan point     1 out of    11
 All quantities printed in internal units (Hartrees-Bohrs-Radians)
 RMS Force = .17982D-01 SwitMx=.10000D-02 MixMth= 1
 Mixed Optimization -- RFO/linear search
 Second derivative matrix not updated -- first step.
 The second derivative matrix:
                          R1        R2        R3        R4        A1
           R1           0.37229
           R2           0.00000   0.37535
           R3           0.00000   0.00000   0.36611
           R4           0.00000   0.00000   0.00000   0.37230
           A1           0.00000   0.00000   0.00000   0.00000   0.16000
           A2           0.00000   0.00000   0.00000   0.00000   0.00000
           A3           0.00000   0.00000   0.00000   0.00000   0.00000
           A4           0.00000   0.00000   0.00000   0.00000   0.00000
           A5           0.00000   0.00000   0.00000   0.00000   0.00000
           A6           0.00000   0.00000   0.00000   0.00000   0.00000
           D1           0.00000   0.00000   0.00000   0.00000   0.00000
           D2           0.00000   0.00000   0.00000   0.00000   0.00000
           D3           0.00000   0.00000   0.00000   0.00000   0.00000
           D4           0.00000   0.00000   0.00000   0.00000   0.00000
           D5           0.00000   0.00000   0.00000   0.00000   0.00000
                          A2        A3        A4        A5        A6
           A2           0.16000
           A3           0.00000   0.16000
           A4           0.00000   0.00000   0.16000
           A5           0.00000   0.00000   0.00000   0.16000
           A6           0.00000   0.00000   0.00000   0.00000   0.16000
           D1           0.00000   0.00000   0.00000   0.00000   0.00000
           D2           0.00000   0.00000   0.00000   0.00000   0.00000
           D3           0.00000   0.00000   0.00000   0.00000   0.00000
           D4           0.00000   0.00000   0.00000   0.00000   0.00000
           D5           0.00000   0.00000   0.00000   0.00000   0.00000
                          D1        D2        D3        D4        D5
           D1           0.00434
           D2           0.00000   0.00499
           D3           0.00000   0.00000   0.00499
           D4           0.00000   0.00000   0.00000   0.00499
           D5           0.00000   0.00000   0.00000   0.00000   0.00230
 ITU=  0
     Eigenvalues ---    0.05335   0.05901   0.13810   0.16000   0.35334
     Eigenvalues ---    0.37120   0.37230   0.374571000.000001000.00000
     Eigenvalues --- 1000.000001000.000001000.000001000.000001000.00000
 RFO step:  Lambda=-1.18002556D-02 EMin= 5.33473276D-02
 Linear search not attempted -- first point.
 Iteration  1 RMS(Cart)=  0.04527684 RMS(Int)=  0.00003262
 Iteration  2 RMS(Cart)=  0.00002105 RMS(Int)=  0.00001058
 Iteration  3 RMS(Cart)=  0.00000000 RMS(Int)=  0.00001058
 Iteration  1 RMS(Cart)=  0.00000348 RMS(Int)=  0.00000784
 Iteration  2 RMS(Cart)=  0.00000258 RMS(Int)=  0.00000856
 Iteration  3 RMS(Cart)=  0.00000191 RMS(Int)=  0.00000986
 Iteration  4 RMS(Cart)=  0.00000141 RMS(Int)=  0.00001111
 Iteration  5 RMS(Cart)=  0.00000105 RMS(Int)=  0.00001214
 Iteration  6 RMS(Cart)=  0.00000078 RMS(Int)=  0.00001294
 ITry= 1 IFail=0 DXMaxC= 8.90D-02 DCOld= 1.00D+10 DXMaxT= 3.00D-01 DXLimC= 3.00D+00 Rises=F
 Variable       Old X    -DE/DX   Delta X   Delta X   Delta X     New X
                                 (Linear)    (Quad)   (Total)
    R1        2.02202   0.03407   0.00000   0.08872   0.08873   2.11075
    R2        2.01747   0.03579   0.00000   0.09248   0.09248   2.10996
    R3        2.03137   0.03039   0.00000   0.08036   0.08034   2.11171
    R4        2.02201   0.03409   0.00000   0.08874   0.08874   2.11075
    A1        1.91140   0.00005   0.00000   0.00050   0.00049   1.91189
    A2        1.90898  -0.00009   0.00000  -0.00024  -0.00021   1.90877
    A3        1.91066   0.00004   0.00000   0.00060   0.00059   1.91125
    A4        1.91226  -0.00023   0.00000  -0.00175  -0.00172   1.91054
    A5        1.91146   0.00011   0.00000   0.00067   0.00065   1.91212
    A6        1.90904   0.00012   0.00000   0.00022   0.00019   1.90923
    D1       -2.09531   0.00014   0.00000   0.00061   0.00058  -2.09473
    D2        2.09586   0.00015   0.00000   0.00139   0.00136   2.09722
    D3       -2.09141   0.00001   0.00000  -0.00021  -0.00022  -2.09163
    D4        2.09592  -0.00014   0.00000  -0.00159  -0.00158   2.09433
    D5       -0.61672   0.00034   0.00000   0.00000  -0.00001  -0.61673
         Item               Value     Threshold  Converged?
 Maximum Force            0.035732     0.000450     NO 
 RMS     Force            0.017982     0.000300     NO 
 Maximum Displacement     0.088992     0.001800     NO 
 RMS     Displacement     0.045277     0.001200     NO 
 Predicted change in Energy=-6.081634D-03
 Lowest energy point so far.  Saving SCF results.
 GradGradGradGradGradGradGradGradGradGradGradGradGradGradGradGradGradGrad

 Leave Link  103 at Sun May 29 19:29:43 2022, MaxMem=   262144000 cpu:               0.0 elap:               0.0
 (Enter /binaries/g16/l202.exe)
                          Input orientation:                          
 ---------------------------------------------------------------------
 Center     Atomic      Atomic             Coordinates (Angstroms)
 Number     Number       Type             X           Y           Z
 ---------------------------------------------------------------------
      1          6           0        4.291667    3.658738   -0.000873
      2          1           0        4.664404    2.605806   -0.001192
      3          1           0        4.665328    4.186951    0.909090
      4          1           0        4.662993    4.183518   -0.914910
      5          1           0        3.174708    3.658987   -0.001115
 ---------------------------------------------------------------------
                    Distance matrix (angstroms):
                    1          2          3          4          5
     1  C    0.000000
     2  H    1.116960   0.000000
     3  H    1.116541   1.824455   0.000000
     4  H    1.117471   1.823200   1.824005   0.000000
     5  H    1.116960   1.824387   1.824601   1.823499   0.000000
 Stoichiometry    CH4
 Framework group  C1[X(CH4)]
 Deg. of freedom     9
 Full point group                 C1      NOp   1
 RotChk:  IX=0 Diff= 1.67D+00
 Largest Abelian subgroup         C1      NOp   1
 Largest concise Abelian subgroup C1      NOp   1
                         Standard orientation:                         
 ---------------------------------------------------------------------
 Center     Atomic      Atomic             Coordinates (Angstroms)
 Number     Number       Type             X           Y           Z
 ---------------------------------------------------------------------
      1          6           0       -0.000299    0.000129   -0.000340
      2          1           0        0.287856   -0.894521   -0.603803
      3          1           0       -1.102098    0.163653   -0.077562
      4          1           0        0.277018   -0.169156    1.068855
      5          1           0        0.539019    0.899253   -0.385451
 ---------------------------------------------------------------------
 Rotational constants (GHZ):         150.7755182         150.7509538         150.6331409
 Leave Link  202 at Sun May 29 19:29:43 2022, MaxMem=   262144000 cpu:               0.0 elap:               0.0
 (Enter /binaries/g16/l301.exe)
 Standard basis: VSTO-6G (5D, 7F)
 Ernie: Thresh=  0.10000D-02 Tol=  0.10000D-05 Strict=F.
  NNHCO=     0 NNPyr=     0 NCTC=     0               EPep=         0.000000000
    EC=         6.766723750  ECS=         0.500979663   EG=         0.066343120
   EHC=         0.000000000  EAt=        -6.115142680  AtH=         0.604449838
 EPDDG=         0.000000000  ECC=         7.334046533 EAtT=         6.719592518
 There are     8 symmetry adapted cartesian basis functions of A   symmetry.
 There are     8 symmetry adapted basis functions of A   symmetry.
     8 basis functions,    48 primitive gaussians,     8 cartesian basis functions
     4 alpha electrons        4 beta electrons
       nuclear repulsion energy        14.0536390513 Hartrees.
 IExCor=    0 DFT=F Ex=HF Corr=None ExCW=0 ScaHFX=  1.000000
 ScaDFX=  1.000000  1.000000  1.000000  1.000000 ScalE2=  1.000000  1.000000
 IRadAn=      5 IRanWt=     -1 IRanGd=            0 ICorTp=0 IEmpDi=  4
 Integral buffers will be    131072 words long.
 Regular integral format.
 Two-electron integral symmetry is turned off.
 Leave Link  301 at Sun May 29 19:29:43 2022, MaxMem=   262144000 cpu:               0.1 elap:               0.0
 (Enter /binaries/g16/l302.exe)
 Do NDO integrals.
 NPDir=0 NMtPBC=     1 NCelOv=     1 NCel=       1 NClECP=     1 NCelD=      1
         NCelK=      1 NCelE2=     1 NClLst=     1 CellRange=     0.0.
 One-electron integrals computed using PRISM.
 NBasis=     8 RedAO= F EigKep=  0.00D+00  NBF=     8
 NBsUse=     8 1.00D-04 EigRej=  0.00D+00 NBFU=     8
 Leave Link  302 at Sun May 29 19:29:43 2022, MaxMem=   262144000 cpu:               0.1 elap:               0.0
 (Enter /binaries/g16/l303.exe)
 DipDrv:  MaxL=1.
 Leave Link  303 at Sun May 29 19:29:43 2022, MaxMem=   262144000 cpu:               0.0 elap:               0.0
 (Enter /binaries/g16/l401.exe)
 Initial guess from the checkpoint file:  "in.chk"
 B after Tr=     0.000000    0.000000    0.000000
         Rot=    0.806245   -0.004810    0.583850    0.095210 Ang= -72.54 deg.
 Guess basis will be translated and rotated to current coordinates.
 JPrj=0 DoOrth=T DoCkMO=T.
 Leave Link  401 at Sun May 29 19:29:43 2022, MaxMem=   262144000 cpu:               0.2 elap:               0.0
 (Enter /binaries/g16/l502.exe)
 Keep J ints in memory in canonical form, NReq=859348.
 FoFCou: FMM=F IPFlag=           0 FMFlag=           0 FMFlg1=           0
         NFxFlg=           0 DoJE=F BraDBF=F KetDBF=F FulRan=T
         wScrn=  0.000000 ICntrl=       600 IOpCl=  2 I1Cent=           0 NGrid=           0
         NMat0=    1 NMatS0=     14 NMatT0=    0 NMatD0=    1 NMtDS0=    0 NMtDT0=    0
 Symmetry not used in FoFCou.
 Two-electron integral symmetry not used.
 Closed shell SCF:
 Using DIIS extrapolation, IDIIS=  1040.
 Overlap will be assumed to be unity.
 NGot=   262144000 LenX=   262083483 LenY=   262082601
 Requested convergence on RMS density matrix=1.00D-08 within 128 cycles.
 Requested convergence on MAX density matrix=1.00D-06.
 Requested convergence on             energy=1.00D-06.
 No special actions if energy rises.

 Cycle   1  Pass 1  IDiag  1:
 E=-0.135734970866004E-01
 DIIS: error= 3.33D-03 at cycle   1 NSaved=   1.
 NSaved= 1 IEnMin= 1 EnMin=-0.135734970866004E-01 IErMin= 1 ErrMin= 3.33D-03
 ErrMax= 3.33D-03  0.00D+00 EMaxC= 1.00D-01 BMatC= 1.72D-04 BMatP= 1.72D-04
 IDIUse=3 WtCom= 9.67D-01 WtEn= 3.33D-02
 Coeff-Com:  0.100D+01
 Coeff-En:   0.100D+01
 Coeff:      0.100D+01
 GapD=    2.000 DampG=2.000 DampE=1.000 DampFc=2.0000 IDamp=-1.
 RMSDP=1.90D-03 MaxDP=1.02D-02              OVMax= 0.00D+00

 Cycle   2  Pass 1  IDiag  3:
 E=-0.139207519433633E-01 Delta-E=       -0.000347254857 Rises=F Damp=F
 DIIS: error= 7.63D-04 at cycle   2 NSaved=   2.
 NSaved= 2 IEnMin= 2 EnMin=-0.139207519433633E-01 IErMin= 2 ErrMin= 7.63D-04
 ErrMax= 7.63D-04  0.00D+00 EMaxC= 1.00D-01 BMatC= 9.68D-06 BMatP= 1.72D-04
 IDIUse=3 WtCom= 9.92D-01 WtEn= 7.63D-03
 Coeff-Com: -0.304D+00 0.130D+01
 Coeff-En:   0.000D+00 0.100D+01
 Coeff:     -0.302D+00 0.130D+01
 Gap=     0.658 Goal=   None    Shift=    0.000
 RMSDP=6.29D-04 MaxDP=3.03D-03 DE=-3.47D-04 OVMax= 3.12D-03

 Cycle   3  Pass 1  IDiag  3:
 E=-0.139433174551673E-01 Delta-E=       -0.000022565512 Rises=F Damp=F
 DIIS: error= 7.12D-05 at cycle   3 NSaved=   3.
 NSaved= 3 IEnMin= 3 EnMin=-0.139433174551673E-01 IErMin= 3 ErrMin= 7.12D-05
 ErrMax= 7.12D-05  0.00D+00 EMaxC= 1.00D-01 BMatC= 8.34D-08 BMatP= 9.68D-06
 IDIUse=1 WtCom= 1.00D+00 WtEn= 0.00D+00
 Coeff-Com:  0.276D+00-0.120D+01 0.192D+01
 Coeff:      0.276D+00-0.120D+01 0.192D+01
 Gap=     0.658 Goal=   None    Shift=    0.000
 RMSDP=1.49D-04 MaxDP=5.00D-04 DE=-2.26D-05 OVMax= 4.99D-04

 Cycle   4  Pass 1  IDiag  3:
 E=-0.139438050032368E-01 Delta-E=       -0.000000487548 Rises=F Damp=F
 DIIS: error= 3.03D-06 at cycle   4 NSaved=   4.
 NSaved= 4 IEnMin= 4 EnMin=-0.139438050032368E-01 IErMin= 4 ErrMin= 3.03D-06
 ErrMax= 3.03D-06  0.00D+00 EMaxC= 1.00D-01 BMatC= 2.43D-10 BMatP= 8.34D-08
 IDIUse=1 WtCom= 1.00D+00 WtEn= 0.00D+00
 Coeff-Com: -0.163D+00 0.707D+00-0.114D+01 0.159D+01
 Coeff:     -0.163D+00 0.707D+00-0.114D+01 0.159D+01
 Gap=     0.658 Goal=   None    Shift=    0.000
 RMSDP=6.09D-06 MaxDP=1.57D-05 DE=-4.88D-07 OVMax= 0.00D+00

 Cycle   5  Pass 1  IDiag  3:
 E=-0.139438061917616E-01 Delta-E=       -0.000000001189 Rises=F Damp=F
 DIIS: error= 5.26D-07 at cycle   5 NSaved=   5.
 NSaved= 5 IEnMin= 5 EnMin=-0.139438061917616E-01 IErMin= 5 ErrMin= 5.26D-07
 ErrMax= 5.26D-07  0.00D+00 EMaxC= 1.00D-01 BMatC= 7.31D-12 BMatP= 2.43D-10
 IDIUse=1 WtCom= 1.00D+00 WtEn= 0.00D+00
 Coeff-Com:  0.728D-01-0.317D+00 0.509D+00-0.797D+00 0.153D+01
 Coeff:      0.728D-01-0.317D+00 0.509D+00-0.797D+00 0.153D+01
 Gap=     0.658 Goal=   None    Shift=    0.000
 RMSDP=1.17D-06 MaxDP=3.57D-06 DE=-1.19D-09 OVMax= 3.80D-06

 Cycle   6  Pass 1  IDiag  3:
 E=-0.139438062273864E-01 Delta-E=       -0.000000000036 Rises=F Damp=F
 DIIS: error= 6.46D-08 at cycle   6 NSaved=   6.
 NSaved= 6 IEnMin= 6 EnMin=-0.139438062273864E-01 IErMin= 6 ErrMin= 6.46D-08
 ErrMax= 6.46D-08  0.00D+00 EMaxC= 1.00D-01 BMatC= 8.68D-14 BMatP= 7.31D-12
 IDIUse=1 WtCom= 1.00D+00 WtEn= 0.00D+00
 Coeff-Com: -0.316D-01 0.137D+00-0.221D+00 0.346D+00-0.688D+00 0.146D+01
 Coeff:     -0.316D-01 0.137D+00-0.221D+00 0.346D+00-0.688D+00 0.146D+01
 Gap=     0.658 Goal=   None    Shift=    0.000
 RMSDP=1.06D-07 MaxDP=2.60D-07 DE=-3.56D-11 OVMax= 0.00D+00

 Cycle   7  Pass 1  IDiag  3:
 E=-0.139438062277364E-01 Delta-E=       -0.000000000000 Rises=F Damp=F
 DIIS: error= 1.91D-08 at cycle   7 NSaved=   7.
 NSaved= 7 IEnMin= 7 EnMin=-0.139438062277364E-01 IErMin= 7 ErrMin= 1.91D-08
 ErrMax= 1.91D-08  0.00D+00 EMaxC= 1.00D-01 BMatC= 6.26D-15 BMatP= 8.68D-14
 IDIUse=1 WtCom= 1.00D+00 WtEn= 0.00D+00
 Coeff-Com:  0.112D-03-0.520D-03 0.859D-03-0.637D-03 0.436D-02-0.185D+00
 Coeff-Com:  0.118D+01
 Coeff:      0.112D-03-0.520D-03 0.859D-03-0.637D-03 0.436D-02-0.185D+00
 Coeff:      0.118D+01
 Gap=     0.658 Goal=   None    Shift=    0.000
 RMSDP=2.25D-08 MaxDP=6.69D-08 DE=-3.50D-13 OVMax= 7.33D-08

 Cycle   8  Pass 1  IDiag  3:
 E=-0.139438062277559E-01 Delta-E=       -0.000000000000 Rises=F Damp=F
 DIIS: error= 1.63D-09 at cycle   8 NSaved=   8.
 NSaved= 8 IEnMin= 8 EnMin=-0.139438062277559E-01 IErMin= 8 ErrMin= 1.63D-09
 ErrMax= 1.63D-09  0.00D+00 EMaxC= 1.00D-01 BMatC= 6.02D-17 BMatP= 6.26D-15
 IDIUse=1 WtCom= 1.00D+00 WtEn= 0.00D+00
 Coeff-Com:  0.193D-04-0.674D-04 0.982D-04-0.460D-03-0.534D-03 0.804D-01
 Coeff-Com: -0.577D+00 0.150D+01
 Coeff:      0.193D-04-0.674D-04 0.982D-04-0.460D-03-0.534D-03 0.804D-01
 Coeff:     -0.577D+00 0.150D+01
 Gap=     0.658 Goal=   None    Shift=    0.000
 RMSDP=3.05D-09 MaxDP=7.42D-09 DE=-1.95D-14 OVMax= 1.13D-08

 Cycle   9  Pass 2  IDiag  1:
 SCF Done:  E(RAM1) = -0.139438062278E-01 A.U. after    9 cycles
            NFock=  8  Conv=0.31D-08     -V/T= 0.9986
 KE=-9.870939402703D+00 PE=-1.322058171873D+01 EE= 9.023938263862D+00
 Leave Link  502 at Sun May 29 19:29:43 2022, MaxMem=   262144000 cpu:               0.1 elap:               0.0
 (Enter /binaries/g16/l701.exe)
 ... and contract with generalized density number  0.
 Compute integral first derivatives.
 Leave Link  701 at Sun May 29 19:29:43 2022, MaxMem=   262144000 cpu:               0.1 elap:               0.0
 (Enter /binaries/g16/l702.exe)
 L702 exits ... SP integral derivatives will be done elsewhere.
 Leave Link  702 at Sun May 29 19:29:43 2022, MaxMem=   262144000 cpu:               0.0 elap:               0.0
 (Enter /binaries/g16/l703.exe)
 Integral derivatives from FoFJK, PRISM(SPDF).
 Compute integral first derivatives, UseDBF=F ICtDFT=           0.
 Calling FoFJK, ICntrl=      2127 FMM=F ISym2X=0 I1Cent= 0 IOpClX= 0 NMat=1 NMatS=1 NMatT=0.
 FoFJK:  IHMeth= 8 ICntrl=    2127 DoSepK=F KAlg= 0 I1Cent=           0 FoldK=F
 IRaf=         0 NMat=       1 IRICut=       1 DoRegI=T DoRafI=F ISym2E= 0 IDoP0=3 IntGTp=3.
 FoFCou: FMM=F IPFlag=           0 FMFlag=      100000 FMFlg1=         800
         NFxFlg=           0 DoJE=F BraDBF=F KetDBF=F FulRan=T
         wScrn=  0.000000 ICntrl=      2127 IOpCl=  0 I1Cent=           0 NGrid=           0
         NMat0=    1 NMatS0=      1 NMatT0=    0 NMatD0=    1 NMtDS0=    0 NMtDT0=    0
 Symmetry not used in FoFCou.
 Leave Link  703 at Sun May 29 19:29:43 2022, MaxMem=   262144000 cpu:               0.1 elap:               0.0
 (Enter /binaries/g16/l716.exe)
 Dipole        = 1.65474809D-04-7.61780064D-05 1.93479228D-04
 ***** Axes restored to original set *****
 -------------------------------------------------------------------
 Center     Atomic                   Forces (Hartrees/Bohr)
 Number     Number              X              Y              Z
 -------------------------------------------------------------------
      1        6           0.000075988    0.000044186   -0.000729588
      2        1          -0.001359135    0.003679356    0.000152523
      3        1          -0.001302586   -0.001817512   -0.002998450
      4        1          -0.001356093   -0.001873895    0.003434119
      5        1           0.003941826   -0.000032136    0.000141396
 -------------------------------------------------------------------
 Cartesian Forces:  Max     0.003941826 RMS     0.002043553
 Leave Link  716 at Sun May 29 19:29:43 2022, MaxMem=   262144000 cpu:               0.0 elap:               0.0
 (Enter /binaries/g16/l103.exe)

 GradGradGradGradGradGradGradGradGradGradGradGradGradGradGradGradGradGrad
 Berny optimization.
 Using GEDIIS/GDIIS optimizer.
 FormGI is forming the generalized inverse of G from B-inverse, IUseBI=4.
 Internal  Forces:  Max     0.004132597 RMS     0.002034582
 Search for a local minimum.
 Step number   2 out of a maximum of   25 on scan point     1 out of    11
 All quantities printed in internal units (Hartrees-Bohrs-Radians)
 RMS Force = .21057D-02 SwitMx=.10000D-02 MixMth= 1
 Mixed Optimization -- RFO/linear search
 Update second derivatives using D2CorX and points    1    2
 DE= -4.98D-03 DEPred=-6.08D-03 R= 8.19D-01
 TightC=F SS=  1.41D+00  RLast= 1.75D-01 DXNew= 5.0454D-01 5.2620D-01
 Trust test= 8.19D-01 RLast= 1.75D-01 DXMaxT set to 5.05D-01
 The second derivative matrix:
                          R1        R2        R3        R4        A1
           R1           0.38642
           R2           0.01371   0.38859
           R3           0.01459   0.01431   0.38093
           R4           0.01422   0.01381   0.01467   0.38661
           A1          -0.00004  -0.00004  -0.00003  -0.00004   0.16000
           A2          -0.00034  -0.00035  -0.00031  -0.00034  -0.00000
           A3          -0.00000  -0.00000   0.00000  -0.00000  -0.00000
           A4           0.00016   0.00018   0.00013   0.00016   0.00000
           A5           0.00028   0.00029   0.00026   0.00028   0.00000
           A6          -0.00007  -0.00007  -0.00006  -0.00007  -0.00000
           D1           0.00042   0.00043   0.00038   0.00042   0.00000
           D2           0.00074   0.00077   0.00067   0.00074   0.00000
           D3           0.00036   0.00037   0.00032   0.00036   0.00000
           D4          -0.00038  -0.00039  -0.00035  -0.00038  -0.00000
           D5           0.00080   0.00084   0.00073   0.00080   0.00000
                          A2        A3        A4        A5        A6
           A2           0.16000
           A3          -0.00000   0.16000
           A4           0.00000   0.00000   0.16000
           A5          -0.00000   0.00000  -0.00000   0.16000
           A6           0.00000  -0.00000   0.00000  -0.00000   0.16000
           D1          -0.00000   0.00000  -0.00000   0.00000   0.00000
           D2          -0.00000   0.00000  -0.00000   0.00000   0.00000
           D3          -0.00000   0.00000  -0.00000   0.00000   0.00000
           D4           0.00000  -0.00000   0.00000  -0.00000  -0.00000
           D5          -0.00000   0.00000  -0.00000   0.00000   0.00000
                          D1        D2        D3        D4        D5
           D1           0.00434
           D2           0.00000   0.00500
           D3           0.00000   0.00000   0.00500
           D4          -0.00000  -0.00000  -0.00000   0.00500
           D5           0.00000   0.00001   0.00000  -0.00000   0.00231
 ITU=  1  0
 Use linear search instead of GDIIS.
     Eigenvalues ---    0.05336   0.05899   0.13799   0.16000   0.35450
     Eigenvalues ---    0.37195   0.37408   0.428381000.000001000.00000
     Eigenvalues --- 1000.000001000.000001000.000001000.000001000.00000
 RFO step:  Lambda=-1.58224938D-06 EMin= 5.33627720D-02
 Quartic linear search produced a step of -0.11503.
 Iteration  1 RMS(Cart)=  0.00523659 RMS(Int)=  0.00000360
 Iteration  2 RMS(Cart)=  0.00000236 RMS(Int)=  0.00000132
 Iteration  3 RMS(Cart)=  0.00000000 RMS(Int)=  0.00000132
 Iteration  1 RMS(Cart)=  0.00000008 RMS(Int)=  0.00000019
 ITry= 1 IFail=0 DXMaxC= 9.87D-03 DCOld= 1.00D+10 DXMaxT= 5.05D-01 DXLimC= 3.00D+00 Rises=F
 Variable       Old X    -DE/DX   Delta X   Delta X   Delta X     New X
                                 (Linear)    (Quad)   (Total)
    R1        2.11075  -0.00393  -0.01021   0.00010  -0.01010   2.10064
    R2        2.10996  -0.00374  -0.01064   0.00102  -0.00962   2.10033
    R3        2.11171  -0.00413  -0.00924  -0.00137  -0.01061   2.10110
    R4        2.11075  -0.00394  -0.01021   0.00009  -0.01011   2.10063
    A1        1.91189  -0.00002  -0.00006  -0.00059  -0.00065   1.91124
    A2        1.90877   0.00006   0.00002   0.00050   0.00053   1.90929
    A3        1.91125  -0.00005  -0.00007  -0.00000  -0.00007   1.91118
    A4        1.91054  -0.00001   0.00020  -0.00068  -0.00048   1.91006
    A5        1.91212  -0.00009  -0.00008  -0.00052  -0.00060   1.91152
    A6        1.90923   0.00012  -0.00002   0.00129   0.00127   1.91050
    D1       -2.09473  -0.00001  -0.00007   0.00083   0.00076  -2.09397
    D2        2.09722  -0.00011  -0.00016  -0.00105  -0.00120   2.09602
    D3       -2.09163  -0.00011   0.00003  -0.00140  -0.00138  -2.09301
    D4        2.09433  -0.00000   0.00018  -0.00036  -0.00018   2.09416
    D5       -0.61673   0.00006   0.00000   0.00000   0.00001  -0.61672
         Item               Value     Threshold  Converged?
 Maximum Force            0.004113     0.000450     NO 
 RMS     Force            0.002106     0.000300     NO 
 Maximum Displacement     0.009875     0.001800     NO 
 RMS     Displacement     0.005237     0.001200     NO 
 Predicted change in Energy=-7.196308D-05
 Lowest energy point so far.  Saving SCF results.
 GradGradGradGradGradGradGradGradGradGradGradGradGradGradGradGradGradGrad

 Leave Link  103 at Sun May 29 19:29:43 2022, MaxMem=   262144000 cpu:               0.0 elap:               0.0
 (Enter /binaries/g16/l202.exe)
                          Input orientation:                          
 ---------------------------------------------------------------------
 Center     Atomic      Atomic             Coordinates (Angstroms)
 Number     Number       Type             X           Y           Z
 ---------------------------------------------------------------------
      1          6           0        4.291541    3.658737   -0.001352
      2          1           0        4.662561    2.610869   -0.001050
      3          1           0        4.663490    4.184392    0.904550
      4          1           0        4.661575    4.181166   -0.910399
      5          1           0        3.179933    3.658836   -0.000749
 ---------------------------------------------------------------------
                    Distance matrix (angstroms):
                    1          2          3          4          5
     1  C    0.000000
     2  H    1.111613   0.000000
     3  H    1.111449   1.815513   0.000000
     4  H    1.111855   1.814593   1.814953   0.000000
     5  H    1.111608   1.815605   1.815686   1.815366   0.000000
 Stoichiometry    CH4
 Framework group  C1[X(CH4)]
 Deg. of freedom     9
 Full point group                 C1      NOp   1
 RotChk:  IX=0 Diff= 1.51D+00
 Largest Abelian subgroup         C1      NOp   1
 Largest concise Abelian subgroup C1      NOp   1
                         Standard orientation:                         
 ---------------------------------------------------------------------
 Center     Atomic      Atomic             Coordinates (Angstroms)
 Number     Number       Type             X           Y           Z
 ---------------------------------------------------------------------
      1          6           0        0.000144    0.000114   -0.000191
      2          1           0       -0.438701   -0.757246   -0.685395
      3          1           0       -0.307348    1.017403   -0.325598
      4          1           0       -0.363625   -0.183179    1.034361
      5          1           0        1.108809   -0.077665   -0.022219
 ---------------------------------------------------------------------
 Rotational constants (GHZ):         152.2192957         152.1968980         152.1072901
 Leave Link  202 at Sun May 29 19:29:43 2022, MaxMem=   262144000 cpu:               0.0 elap:               0.0
 (Enter /binaries/g16/l301.exe)
 Standard basis: VSTO-6G (5D, 7F)
 Ernie: Thresh=  0.10000D-02 Tol=  0.10000D-05 Strict=F.
  NNHCO=     0 NNPyr=     0 NCTC=     0               EPep=         0.000000000
    EC=         6.784208707  ECS=         0.509775503   EG=         0.066566374
   EHC=         0.000000000  EAt=        -6.115142680  AtH=         0.604449838
 EPDDG=         0.000000000  ECC=         7.360550584 EAtT=         6.719592518
 There are     8 symmetry adapted cartesian basis functions of A   symmetry.
 There are     8 symmetry adapted basis functions of A   symmetry.
     8 basis functions,    48 primitive gaussians,     8 cartesian basis functions
     4 alpha electrons        4 beta electrons
       nuclear repulsion energy        14.0801431020 Hartrees.
 IExCor=    0 DFT=F Ex=HF Corr=None ExCW=0 ScaHFX=  1.000000
 ScaDFX=  1.000000  1.000000  1.000000  1.000000 ScalE2=  1.000000  1.000000
 IRadAn=      5 IRanWt=     -1 IRanGd=            0 ICorTp=0 IEmpDi=  4
 Integral buffers will be    131072 words long.
 Regular integral format.
 Two-electron integral symmetry is turned off.
 Leave Link  301 at Sun May 29 19:29:43 2022, MaxMem=   262144000 cpu:               0.1 elap:               0.0
 (Enter /binaries/g16/l302.exe)
 Do NDO integrals.
 NPDir=0 NMtPBC=     1 NCelOv=     1 NCel=       1 NClECP=     1 NCelD=      1
         NCelK=      1 NCelE2=     1 NClLst=     1 CellRange=     0.0.
 One-electron integrals computed using PRISM.
 NBasis=     8 RedAO= F EigKep=  0.00D+00  NBF=     8
 NBsUse=     8 1.00D-04 EigRej=  0.00D+00 NBFU=     8
 Leave Link  302 at Sun May 29 19:29:43 2022, MaxMem=   262144000 cpu:               0.2 elap:               0.0
 (Enter /binaries/g16/l303.exe)
 DipDrv:  MaxL=1.
 Leave Link  303 at Sun May 29 19:29:43 2022, MaxMem=   262144000 cpu:               0.0 elap:               0.0
 (Enter /binaries/g16/l401.exe)
 Initial guess from the checkpoint file:  "in.chk"
 B after Tr=    -0.000000   -0.000000   -0.000000
         Rot=    0.844605   -0.027248    0.172283    0.506180 Ang= -64.74 deg.
 Guess basis will be translated and rotated to current coordinates.
 JPrj=0 DoOrth=T DoCkMO=T.
 Leave Link  401 at Sun May 29 19:29:43 2022, MaxMem=   262144000 cpu:               0.2 elap:               0.0
 (Enter /binaries/g16/l502.exe)
 Keep J ints in memory in canonical form, NReq=859348.
 FoFCou: FMM=F IPFlag=           0 FMFlag=           0 FMFlg1=           0
         NFxFlg=           0 DoJE=F BraDBF=F KetDBF=F FulRan=T
         wScrn=  0.000000 ICntrl=       600 IOpCl=  2 I1Cent=           0 NGrid=           0
         NMat0=    1 NMatS0=     14 NMatT0=    0 NMatD0=    1 NMtDS0=    0 NMtDT0=    0
 Symmetry not used in FoFCou.
 Two-electron integral symmetry not used.
 Closed shell SCF:
 Using DIIS extrapolation, IDIIS=  1040.
 Overlap will be assumed to be unity.
 NGot=   262144000 LenX=   262083483 LenY=   262082601
 Requested convergence on RMS density matrix=1.00D-08 within 128 cycles.
 Requested convergence on MAX density matrix=1.00D-06.
 Requested convergence on             energy=1.00D-06.
 No special actions if energy rises.

 Cycle   1  Pass 1  IDiag  1:
 E=-0.140190968162273E-01
 DIIS: error= 3.82D-04 at cycle   1 NSaved=   1.
 NSaved= 1 IEnMin= 1 EnMin=-0.140190968162273E-01 IErMin= 1 ErrMin= 3.82D-04
 ErrMax= 3.82D-04  0.00D+00 EMaxC= 1.00D-01 BMatC= 2.36D-06 BMatP= 2.36D-06
 IDIUse=3 WtCom= 9.96D-01 WtEn= 3.82D-03
 Coeff-Com:  0.100D+01
 Coeff-En:   0.100D+01
 Coeff:      0.100D+01
 RMSDP=2.24D-04 MaxDP=1.18D-03              OVMax= 0.00D+00

 Cycle   2  Pass 1  IDiag  3:
 E=-0.140238895121012E-01 Delta-E=       -0.000004792696 Rises=F Damp=F
 DIIS: error= 9.02D-05 at cycle   2 NSaved=   2.
 NSaved= 2 IEnMin= 2 EnMin=-0.140238895121012E-01 IErMin= 2 ErrMin= 9.02D-05
 ErrMax= 9.02D-05  0.00D+00 EMaxC= 1.00D-01 BMatC= 1.35D-07 BMatP= 2.36D-06
 IDIUse=1 WtCom= 1.00D+00 WtEn= 0.00D+00
 Coeff-Com: -0.306D+00 0.131D+01
 Coeff:     -0.306D+00 0.131D+01
 Gap=     0.660 Goal=   None    Shift=    0.000
 RMSDP=7.60D-05 MaxDP=3.53D-04 DE=-4.79D-06 OVMax= 3.63D-04

 Cycle   3  Pass 1  IDiag  3:
 E=-0.140242123082572E-01 Delta-E=       -0.000000322796 Rises=F Damp=F
 DIIS: error= 9.49D-06 at cycle   3 NSaved=   3.
 NSaved= 3 IEnMin= 3 EnMin=-0.140242123082572E-01 IErMin= 3 ErrMin= 9.49D-06
 ErrMax= 9.49D-06  0.00D+00 EMaxC= 1.00D-01 BMatC= 1.38D-09 BMatP= 1.35D-07
 IDIUse=1 WtCom= 1.00D+00 WtEn= 0.00D+00
 Coeff-Com:  0.268D+00-0.115D+01 0.189D+01
 Coeff:      0.268D+00-0.115D+01 0.189D+01
 Gap=     0.660 Goal=   None    Shift=    0.000
 RMSDP=1.87D-05 MaxDP=5.91D-05 DE=-3.23D-07 OVMax= 0.00D+00

 Cycle   4  Pass 1  IDiag  3:
 E=-0.140242202574203E-01 Delta-E=       -0.000000007949 Rises=F Damp=F
 DIIS: error= 4.41D-07 at cycle   4 NSaved=   4.
 NSaved= 4 IEnMin= 4 EnMin=-0.140242202574203E-01 IErMin= 4 ErrMin= 4.41D-07
 ErrMax= 4.41D-07  0.00D+00 EMaxC= 1.00D-01 BMatC= 4.49D-12 BMatP= 1.38D-09
 IDIUse=1 WtCom= 1.00D+00 WtEn= 0.00D+00
 Coeff-Com: -0.966D-01 0.417D+00-0.690D+00 0.137D+01
 Coeff:     -0.966D-01 0.417D+00-0.690D+00 0.137D+01
 Gap=     0.660 Goal=   None    Shift=    0.000
 RMSDP=6.40D-07 MaxDP=1.96D-06 DE=-7.95D-09 OVMax= 2.13D-06

 Cycle   5  Pass 1  IDiag  3:
 E=-0.140242202731979E-01 Delta-E=       -0.000000000016 Rises=F Damp=F
 DIIS: error= 5.95D-08 at cycle   5 NSaved=   5.
 NSaved= 5 IEnMin= 5 EnMin=-0.140242202731979E-01 IErMin= 5 ErrMin= 5.95D-08
 ErrMax= 5.95D-08  0.00D+00 EMaxC= 1.00D-01 BMatC= 6.93D-14 BMatP= 4.49D-12
 IDIUse=1 WtCom= 1.00D+00 WtEn= 0.00D+00
 Coeff-Com:  0.503D-01-0.217D+00 0.359D+00-0.753D+00 0.156D+01
 Coeff:      0.503D-01-0.217D+00 0.359D+00-0.753D+00 0.156D+01
 Gap=     0.660 Goal=   None    Shift=    0.000
 RMSDP=1.12D-07 MaxDP=3.63D-07 DE=-1.58D-11 OVMax= 0.00D+00

 Cycle   6  Pass 1  IDiag  3:
 E=-0.140242202735159E-01 Delta-E=       -0.000000000000 Rises=F Damp=F
 DIIS: error= 5.45D-09 at cycle   6 NSaved=   6.
 NSaved= 6 IEnMin= 6 EnMin=-0.140242202735159E-01 IErMin= 6 ErrMin= 5.45D-09
 ErrMax= 5.45D-09  0.00D+00 EMaxC= 1.00D-01 BMatC= 3.48D-16 BMatP= 6.93D-14
 IDIUse=1 WtCom= 1.00D+00 WtEn= 0.00D+00
 Coeff-Com: -0.381D-01 0.164D+00-0.271D+00 0.570D+00-0.118D+01 0.176D+01
 Coeff:     -0.381D-01 0.164D+00-0.271D+00 0.570D+00-0.118D+01 0.176D+01
 Gap=     0.660 Goal=   None    Shift=    0.000
 RMSDP=8.42D-09 MaxDP=2.91D-08 DE=-3.18D-13 OVMax= 0.00D+00

 SCF Done:  E(RAM1) = -0.140242202735E-01 A.U. after    6 cycles
            NFock=  6  Conv=0.84D-08     -V/T= 0.9986
 KE=-9.877200620215D+00 PE=-1.325369766656D+01 EE= 9.036730964548D+00
 Leave Link  502 at Sun May 29 19:29:43 2022, MaxMem=   262144000 cpu:               0.1 elap:               0.0
 (Enter /binaries/g16/l701.exe)
 ... and contract with generalized density number  0.
 Compute integral first derivatives.
 Leave Link  701 at Sun May 29 19:29:43 2022, MaxMem=   262144000 cpu:               0.1 elap:               0.0
 (Enter /binaries/g16/l702.exe)
 L702 exits ... SP integral derivatives will be done elsewhere.
 Leave Link  702 at Sun May 29 19:29:43 2022, MaxMem=   262144000 cpu:               0.1 elap:               0.0
 (Enter /binaries/g16/l703.exe)
 Integral derivatives from FoFJK, PRISM(SPDF).
 Compute integral first derivatives, UseDBF=F ICtDFT=           0.
 Calling FoFJK, ICntrl=      2127 FMM=F ISym2X=0 I1Cent= 0 IOpClX= 0 NMat=1 NMatS=1 NMatT=0.
 FoFJK:  IHMeth= 8 ICntrl=    2127 DoSepK=F KAlg= 0 I1Cent=           0 FoldK=F
 IRaf=         0 NMat=       1 IRICut=       1 DoRegI=T DoRafI=F ISym2E= 0 IDoP0=3 IntGTp=3.
 FoFCou: FMM=F IPFlag=           0 FMFlag=      100000 FMFlg1=         800
         NFxFlg=           0 DoJE=F BraDBF=F KetDBF=F FulRan=T
         wScrn=  0.000000 ICntrl=      2127 IOpCl=  0 I1Cent=           0 NGrid=           0
         NMat0=    1 NMatS0=      1 NMatT0=    0 NMatD0=    1 NMtDS0=    0 NMtDT0=    0
 Symmetry not used in FoFCou.
 Leave Link  703 at Sun May 29 19:29:43 2022, MaxMem=   262144000 cpu:               0.1 elap:               0.0
 (Enter /binaries/g16/l716.exe)
 Dipole        =-9.48282779D-05-6.67757792D-05 1.14193858D-04
 ***** Axes restored to original set *****
 -------------------------------------------------------------------
 Center     Atomic                   Forces (Hartrees/Bohr)
 Number     Number              X              Y              Z
 -------------------------------------------------------------------
      1        6           0.000125447    0.000042376   -0.000337075
      2        1          -0.000049049   -0.000036265    0.000095734
      3        1          -0.000023697    0.000001371    0.000118730
      4        1          -0.000075482    0.000002792    0.000070032
      5        1           0.000022781   -0.000010275    0.000052579
 -------------------------------------------------------------------
 Cartesian Forces:  Max     0.000337075 RMS     0.000107299
 Leave Link  716 at Sun May 29 19:29:43 2022, MaxMem=   262144000 cpu:               0.1 elap:               0.0
 (Enter /binaries/g16/l103.exe)

 GradGradGradGradGradGradGradGradGradGradGradGradGradGradGradGradGradGrad
 Berny optimization.
 Using GEDIIS/GDIIS optimizer.
 FormGI is forming the generalized inverse of G from B-inverse, IUseBI=4.
 Internal  Forces:  Max     0.000085547 RMS     0.000048436
 Search for a local minimum.
 Step number   3 out of a maximum of   25 on scan point     1 out of    11
 All quantities printed in internal units (Hartrees-Bohrs-Radians)
 RMS Force = .33969D-04 SwitMx=.10000D-02 MixMth= 2
 Mixed Optimization -- En-DIIS/RFO-DIIS
 Update second derivatives using D2CorX and points    1    2    3
 DE= -8.04D-05 DEPred=-7.20D-05 R= 1.12D+00
 TightC=F SS=  1.41D+00  RLast= 2.04D-02 DXNew= 8.4853D-01 6.1221D-02
 Trust test= 1.12D+00 RLast= 2.04D-02 DXMaxT set to 5.05D-01
 The second derivative matrix:
                          R1        R2        R3        R4        A1
           R1           0.37670
           R2           0.00534   0.38145
           R3           0.00438   0.00552   0.37016
           R4           0.00383   0.00480   0.00376   0.37556
           A1          -0.00247  -0.00234  -0.00258  -0.00247   0.15993
           A2           0.00207   0.00194   0.00222   0.00208   0.00007
           A3           0.00024   0.00023   0.00025   0.00023  -0.00001
           A4          -0.00092  -0.00084  -0.00101  -0.00093  -0.00006
           A5          -0.00123  -0.00113  -0.00133  -0.00124  -0.00007
           A6           0.00231   0.00216   0.00245   0.00234   0.00014
           D1          -0.00060  -0.00054  -0.00069  -0.00060  -0.00001
           D2           0.00097   0.00099   0.00091   0.00096  -0.00002
           D3           0.00116   0.00115   0.00117   0.00115  -0.00001
           D4           0.00019   0.00015   0.00026   0.00019   0.00001
           D5           0.00021   0.00027   0.00010   0.00021  -0.00002
                          A2        A3        A4        A5        A6
           A2           0.15994
           A3           0.00000   0.16000
           A4           0.00006   0.00000   0.15996
           A5           0.00007   0.00000  -0.00005   0.15994
           A6          -0.00014  -0.00000   0.00009   0.00011   0.15980
           D1           0.00001  -0.00000  -0.00002  -0.00002   0.00004
           D2           0.00002   0.00001  -0.00001  -0.00000   0.00001
           D3           0.00001   0.00001   0.00000   0.00001  -0.00002
           D4          -0.00001   0.00000   0.00001   0.00001  -0.00003
           D5           0.00002   0.00000  -0.00002  -0.00001   0.00004
                          D1        D2        D3        D4        D5
           D1           0.00434
           D2          -0.00001   0.00500
           D3          -0.00001   0.00001   0.00501
           D4          -0.00000   0.00000   0.00000   0.00499
           D5          -0.00000   0.00000   0.00000   0.00000   0.00230
 ITU=  1  1  0
 Use linear search instead of GDIIS.
     Eigenvalues ---    0.05329   0.05887   0.13793   0.16000   0.35388
     Eigenvalues ---    0.37194   0.37352   0.390751000.000001000.00000
     Eigenvalues --- 1000.000001000.000001000.000001000.000001000.00000
 RFO step:  Lambda=-1.11075655D-07 EMin= 5.32866139D-02
 Quartic linear search produced a step of  0.00144.
 Iteration  1 RMS(Cart)=  0.00017148 RMS(Int)=  0.00000007
 Iteration  2 RMS(Cart)=  0.00000005 RMS(Int)=  0.00000005
 Iteration  1 RMS(Cart)=  0.00000006 RMS(Int)=  0.00000013
 ITry= 1 IFail=0 DXMaxC= 3.69D-04 DCOld= 1.00D+10 DXMaxT= 5.05D-01 DXLimC= 3.00D+00 Rises=F
 Variable       Old X    -DE/DX   Delta X   Delta X   Delta X     New X
                                 (Linear)    (Quad)   (Total)
    R1        2.10064   0.00001  -0.00001   0.00002   0.00000   2.10064
    R2        2.10033   0.00009  -0.00001   0.00021   0.00019   2.10053
    R3        2.10110  -0.00007  -0.00002  -0.00012  -0.00014   2.10096
    R4        2.10063  -0.00002  -0.00001  -0.00005  -0.00007   2.10057
    A1        1.91124  -0.00001  -0.00000  -0.00024  -0.00024   1.91100
    A2        1.90929   0.00006   0.00000   0.00028   0.00028   1.90957
    A3        1.91118  -0.00003  -0.00000  -0.00002  -0.00002   1.91116
    A4        1.91006   0.00003  -0.00000  -0.00026  -0.00026   1.90980
    A5        1.91152  -0.00005  -0.00000  -0.00027  -0.00027   1.91125
    A6        1.91050   0.00001   0.00000   0.00051   0.00051   1.91101
    D1       -2.09397  -0.00004   0.00000   0.00028   0.00028  -2.09369
    D2        2.09602  -0.00006  -0.00000  -0.00047  -0.00047   2.09555
    D3       -2.09301  -0.00006  -0.00000  -0.00064  -0.00064  -2.09365
    D4        2.09416   0.00001  -0.00000  -0.00017  -0.00017   2.09399
    D5       -0.61672   0.00007   0.00000   0.00000   0.00000  -0.61672
         Item               Value     Threshold  Converged?
 Maximum Force            0.000074     0.000450     YES
 RMS     Force            0.000034     0.000300     YES
 Maximum Displacement     0.000369     0.001800     YES
 RMS     Displacement     0.000171     0.001200     YES
 Predicted change in Energy=-5.576758D-08
 Optimization completed.
    -- Stationary point found.
                           ----------------------------
                           !   Optimized Parameters   !
                           ! (Angstroms and Degrees)  !
 --------------------------                            --------------------------
 ! Name  Definition              Value          Derivative Info.                !
 --------------------------------------------------------------------------------
 ! R1    R(1,2)                  1.1116         -DE/DX =    0.0                 !
 ! R2    R(1,3)                  1.1114         -DE/DX =    0.0001              !
 ! R3    R(1,4)                  1.1119         -DE/DX =   -0.0001              !
 ! R4    R(1,5)                  1.1116         -DE/DX =    0.0                 !
 ! A1    A(2,1,3)              109.5061         -DE/DX =    0.0                 !
 ! A2    A(2,1,4)              109.3944         -DE/DX =    0.0001              !
 ! A3    A(2,1,5)              109.5027         -DE/DX =    0.0                 !
 ! A4    A(3,1,4)              109.4384         -DE/DX =    0.0                 !
 ! A5    A(3,1,5)              109.5219         -DE/DX =    0.0                 !
 ! A6    A(4,1,5)              109.4637         -DE/DX =    0.0                 !
 ! D1    D(2,1,4,3)           -119.9757         -DE/DX =    0.0                 !
 ! D2    D(2,1,5,3)            120.0932         -DE/DX =   -0.0001              !
 ! D3    D(2,1,5,4)           -119.9206         -DE/DX =   -0.0001              !
 ! D4    D(3,1,5,4)            119.9863         -DE/DX =    0.0                 !
 ! D5    D(1,2,3,4)            -35.3356         -DE/DX =    0.0001              !
 --------------------------------------------------------------------------------
 Lowest energy point so far.  Saving SCF results.
 Iteration  1 RMS(Cart)=  0.00432611 RMS(Int)=  0.00982594
 Iteration  2 RMS(Cart)=  0.00004885 RMS(Int)=  0.00982582
 Iteration  3 RMS(Cart)=  0.00000030 RMS(Int)=  0.00982582
 Iteration  1 RMS(Cart)=  0.00318116 RMS(Int)=  0.00731845
 Iteration  2 RMS(Cart)=  0.00234982 RMS(Int)=  0.00798940
 Iteration  3 RMS(Cart)=  0.00174438 RMS(Int)=  0.00920082
 Iteration  4 RMS(Cart)=  0.00129974 RMS(Int)=  0.01037010
 Iteration  5 RMS(Cart)=  0.00097112 RMS(Int)=  0.01134753
 Iteration  6 RMS(Cart)=  0.00072710 RMS(Int)=  0.01212359
 Iteration  7 RMS(Cart)=  0.00054523 RMS(Int)=  0.01272593
 Iteration  8 RMS(Cart)=  0.00040934 RMS(Int)=  0.01318807
 Iteration  9 RMS(Cart)=  0.00030758 RMS(Int)=  0.01354037
 Iteration 10 RMS(Cart)=  0.00023127 RMS(Int)=  0.01380790
 Iteration 11 RMS(Cart)=  0.00017398 RMS(Int)=  0.01401057
 Iteration 12 RMS(Cart)=  0.00013093 RMS(Int)=  0.01416386
 Iteration 13 RMS(Cart)=  0.00009856 RMS(Int)=  0.01427967
 Iteration 14 RMS(Cart)=  0.00007421 RMS(Int)=  0.01436710
 Iteration 15 RMS(Cart)=  0.00005588 RMS(Int)=  0.01443307
 Iteration 16 RMS(Cart)=  0.00004209 RMS(Int)=  0.01448282
 Iteration 17 RMS(Cart)=  0.00003170 RMS(Int)=  0.01452034
 Iteration 18 RMS(Cart)=  0.00002388 RMS(Int)=  0.01454862
 Iteration 19 RMS(Cart)=  0.00001799 RMS(Int)=  0.01456994
 Iteration 20 RMS(Cart)=  0.00001355 RMS(Int)=  0.01458601
 Iteration 21 RMS(Cart)=  0.00001021 RMS(Int)=  0.01459812
 Iteration 22 RMS(Cart)=  0.00000769 RMS(Int)=  0.01460724
 Iteration 23 RMS(Cart)=  0.00000579 RMS(Int)=  0.01461411
 Iteration 24 RMS(Cart)=  0.00000436 RMS(Int)=  0.01461930
 Iteration 25 RMS(Cart)=  0.00000329 RMS(Int)=  0.01462320
 Iteration 26 RMS(Cart)=  0.00000248 RMS(Int)=  0.01462614
 Iteration 27 RMS(Cart)=  0.00000187 RMS(Int)=  0.01462836
 Iteration 28 RMS(Cart)=  0.00000141 RMS(Int)=  0.01463002
 Iteration 29 RMS(Cart)=  0.00000106 RMS(Int)=  0.01463128
 Iteration 30 RMS(Cart)=  0.00000080 RMS(Int)=  0.01463223
 GradGradGradGradGradGradGradGradGradGradGradGradGradGradGradGradGradGrad

 Leave Link  103 at Sun May 29 19:29:43 2022, MaxMem=   262144000 cpu:               0.0 elap:               0.0
 (Enter /binaries/g16/l202.exe)
                          Input orientation:                          
 ---------------------------------------------------------------------
 Center     Atomic      Atomic             Coordinates (Angstroms)
 Number     Number       Type             X           Y           Z
 ---------------------------------------------------------------------
      1          6           0        4.303682    3.661149   -0.005791
      2          1           0        4.660146    2.604370    0.008915
      3          1           0        4.661077    4.179097    0.915035
      4          1           0        4.642075    4.185136   -0.917045
      5          1           0        3.192120    3.664248   -0.010114
 ---------------------------------------------------------------------
                    Distance matrix (angstroms):
                    1          2          3          4          5
     1  C    0.000000
     2  H    1.115376   0.000000
     3  H    1.115313   1.816815   0.000000
     4  H    1.104290   1.832088   1.832188   0.000000
     5  H    1.111575   1.810747   1.810747   1.787797   0.000000
 Stoichiometry    CH4
 Framework group  C1[X(CH4)]
 Deg. of freedom     9
 Full point group                 C1      NOp   1
 RotChk:  IX=1 Diff= 1.62D+00
 Largest Abelian subgroup         C1      NOp   1
 Largest concise Abelian subgroup C1      NOp   1
                         Standard orientation:                         
 ---------------------------------------------------------------------
 Center     Atomic      Atomic             Coordinates (Angstroms)
 Number     Number       Type             X           Y           Z
 ---------------------------------------------------------------------
      1          6           0        0.000113    0.000019    0.006366
      2          1           0       -0.628431   -0.909688    0.152755
      3          1           0       -0.631587    0.907124    0.154815
      4          1           0        0.868519    0.000615    0.688515
      5          1           0        0.390820    0.001837   -1.034280
 ---------------------------------------------------------------------
 Rotational constants (GHZ):         154.6797753         152.3079561         149.6299048
 Leave Link  202 at Sun May 29 19:29:43 2022, MaxMem=   262144000 cpu:               0.0 elap:               0.0
 (Enter /binaries/g16/l301.exe)
 Standard basis: VSTO-6G (5D, 7F)
 Ernie: Thresh=  0.10000D-02 Tol=  0.10000D-05 Strict=F.
  NNHCO=     0 NNPyr=     0 NCTC=     0               EPep=         0.000000000
    EC=         6.784377632  ECS=         0.509847115   EG=         0.066586869
   EHC=         0.000000000  EAt=        -6.115142680  AtH=         0.604449838
 EPDDG=         0.000000000  ECC=         7.360811616 EAtT=         6.719592518
 There are     8 symmetry adapted cartesian basis functions of A   symmetry.
 There are     8 symmetry adapted basis functions of A   symmetry.
     8 basis functions,    48 primitive gaussians,     8 cartesian basis functions
     4 alpha electrons        4 beta electrons
       nuclear repulsion energy        14.0804041342 Hartrees.
 IExCor=    0 DFT=F Ex=HF Corr=None ExCW=0 ScaHFX=  1.000000
 ScaDFX=  1.000000  1.000000  1.000000  1.000000 ScalE2=  1.000000  1.000000
 IRadAn=      5 IRanWt=     -1 IRanGd=            0 ICorTp=0 IEmpDi=  4
 Integral buffers will be    131072 words long.
 Regular integral format.
 Two-electron integral symmetry is turned off.
 Leave Link  301 at Sun May 29 19:29:43 2022, MaxMem=   262144000 cpu:               0.1 elap:               0.0
 (Enter /binaries/g16/l302.exe)
 Do NDO integrals.
 NPDir=0 NMtPBC=     1 NCelOv=     1 NCel=       1 NClECP=     1 NCelD=      1
         NCelK=      1 NCelE2=     1 NClLst=     1 CellRange=     0.0.
 One-electron integrals computed using PRISM.
 NBasis=     8 RedAO= F EigKep=  0.00D+00  NBF=     8
 NBsUse=     8 1.00D-04 EigRej=  0.00D+00 NBFU=     8
 Leave Link  302 at Sun May 29 19:29:43 2022, MaxMem=   262144000 cpu:               0.2 elap:               0.0
 (Enter /binaries/g16/l303.exe)
 DipDrv:  MaxL=1.
 Leave Link  303 at Sun May 29 19:29:43 2022, MaxMem=   262144000 cpu:               0.1 elap:               0.0
 (Enter /binaries/g16/l401.exe)
 Initial guess from the checkpoint file:  "in.chk"
 B after Tr=     0.000000    0.000000   -0.000000
         Rot=    0.819499    0.061588   -0.563007   -0.087473 Ang=  69.93 deg.
 Guess basis will be translated and rotated to current coordinates.
 JPrj=0 DoOrth=T DoCkMO=T.
 Leave Link  401 at Sun May 29 19:29:43 2022, MaxMem=   262144000 cpu:               0.2 elap:               0.0
 (Enter /binaries/g16/l502.exe)
 Keep J ints in memory in canonical form, NReq=859348.
 FoFCou: FMM=F IPFlag=           0 FMFlag=           0 FMFlg1=           0
         NFxFlg=           0 DoJE=F BraDBF=F KetDBF=F FulRan=T
         wScrn=  0.000000 ICntrl=       600 IOpCl=  2 I1Cent=           0 NGrid=           0
         NMat0=    1 NMatS0=     14 NMatT0=    0 NMatD0=    1 NMtDS0=    0 NMtDT0=    0
 Symmetry not used in FoFCou.
 Two-electron integral symmetry not used.
 Closed shell SCF:
 Using DIIS extrapolation, IDIIS=  1040.
 Overlap will be assumed to be unity.
 NGot=   262144000 LenX=   262083483 LenY=   262082601
 Requested convergence on RMS density matrix=1.00D-08 within 128 cycles.
 Requested convergence on MAX density matrix=1.00D-06.
 Requested convergence on             energy=1.00D-06.
 No special actions if energy rises.

 Cycle   1  Pass 1  IDiag  1:
 E=-0.136988173843839E-01
 DIIS: error= 1.20D-03 at cycle   1 NSaved=   1.
 NSaved= 1 IEnMin= 1 EnMin=-0.136988173843839E-01 IErMin= 1 ErrMin= 1.20D-03
 ErrMax= 1.20D-03  0.00D+00 EMaxC= 1.00D-01 BMatC= 1.59D-05 BMatP= 1.59D-05
 IDIUse=3 WtCom= 9.88D-01 WtEn= 1.20D-02
 Coeff-Com:  0.100D+01
 Coeff-En:   0.100D+01
 Coeff:      0.100D+01
 GapD=    2.000 DampG=2.000 DampE=1.000 DampFc=2.0000 IDamp=-1.
 RMSDP=9.25D-04 MaxDP=2.17D-03              OVMax= 0.00D+00

 Cycle   2  Pass 1  IDiag  3:
 E=-0.137545790052904E-01 Delta-E=       -0.000055761621 Rises=F Damp=F
 DIIS: error= 4.03D-04 at cycle   2 NSaved=   2.
 NSaved= 2 IEnMin= 2 EnMin=-0.137545790052904E-01 IErMin= 2 ErrMin= 4.03D-04
 ErrMax= 4.03D-04  0.00D+00 EMaxC= 1.00D-01 BMatC= 2.14D-06 BMatP= 1.59D-05
 IDIUse=3 WtCom= 9.96D-01 WtEn= 4.03D-03
 Coeff-Com: -0.523D+00 0.152D+01
 Coeff-En:   0.000D+00 0.100D+01
 Coeff:     -0.521D+00 0.152D+01
 Gap=     0.655 Goal=   None    Shift=    0.000
 RMSDP=5.59D-04 MaxDP=1.24D-03 DE=-5.58D-05 OVMax= 2.90D-03

 Cycle   3  Pass 1  IDiag  3:
 E=-0.137646153605093E-01 Delta-E=       -0.000010036355 Rises=F Damp=F
 DIIS: error= 4.93D-05 at cycle   3 NSaved=   3.
 NSaved= 3 IEnMin= 3 EnMin=-0.137646153605093E-01 IErMin= 3 ErrMin= 4.93D-05
 ErrMax= 4.93D-05  0.00D+00 EMaxC= 1.00D-01 BMatC= 4.43D-08 BMatP= 2.14D-06
 IDIUse=1 WtCom= 1.00D+00 WtEn= 0.00D+00
 Coeff-Com:  0.256D+00-0.800D+00 0.154D+01
 Coeff:      0.256D+00-0.800D+00 0.154D+01
 Gap=     0.655 Goal=   None    Shift=    0.000
 RMSDP=8.51D-05 MaxDP=2.90D-04 DE=-1.00D-05 OVMax= 4.49D-04

 Cycle   4  Pass 1  IDiag  3:
 E=-0.137648225006970E-01 Delta-E=       -0.000000207140 Rises=F Damp=F
 DIIS: error= 8.88D-06 at cycle   4 NSaved=   4.
 NSaved= 4 IEnMin= 4 EnMin=-0.137648225006970E-01 IErMin= 4 ErrMin= 8.88D-06
 ErrMax= 8.88D-06  0.00D+00 EMaxC= 1.00D-01 BMatC= 7.68D-10 BMatP= 4.43D-08
 IDIUse=1 WtCom= 1.00D+00 WtEn= 0.00D+00
 Coeff-Com: -0.158D+00 0.497D+00-0.101D+01 0.167D+01
 Coeff:     -0.158D+00 0.497D+00-0.101D+01 0.167D+01
 Gap=     0.655 Goal=   None    Shift=    0.000
 RMSDP=1.26D-05 MaxDP=5.24D-05 DE=-2.07D-07 OVMax= 0.00D+00

 Cycle   5  Pass 1  IDiag  3:
 E=-0.137648264593100E-01 Delta-E=       -0.000000003959 Rises=F Damp=F
 DIIS: error= 2.93D-07 at cycle   5 NSaved=   5.
 NSaved= 5 IEnMin= 5 EnMin=-0.137648264593100E-01 IErMin= 5 ErrMin= 2.93D-07
 ErrMax= 2.93D-07  0.00D+00 EMaxC= 1.00D-01 BMatC= 1.71D-12 BMatP= 7.68D-10
 IDIUse=1 WtCom= 1.00D+00 WtEn= 0.00D+00
 Coeff-Com:  0.506D-01-0.159D+00 0.324D+00-0.548D+00 0.133D+01
 Coeff:      0.506D-01-0.159D+00 0.324D+00-0.548D+00 0.133D+01
 Gap=     0.655 Goal=   None    Shift=    0.000
 RMSDP=4.35D-07 MaxDP=1.13D-06 DE=-3.96D-09 OVMax= 0.00D+00

 Cycle   6  Pass 1  IDiag  3:
 E=-0.137648264663852E-01 Delta-E=       -0.000000000007 Rises=F Damp=F
 DIIS: error= 4.85D-08 at cycle   6 NSaved=   6.
 NSaved= 6 IEnMin= 6 EnMin=-0.137648264663852E-01 IErMin= 6 ErrMin= 4.85D-08
 ErrMax= 4.85D-08  0.00D+00 EMaxC= 1.00D-01 BMatC= 6.56D-14 BMatP= 1.71D-12
 IDIUse=1 WtCom= 1.00D+00 WtEn= 0.00D+00
 Coeff-Com: -0.134D-01 0.422D-01-0.860D-01 0.151D+00-0.509D+00 0.142D+01
 Coeff:     -0.134D-01 0.422D-01-0.860D-01 0.151D+00-0.509D+00 0.142D+01
 Gap=     0.655 Goal=   None    Shift=    0.000
 RMSDP=1.13D-07 MaxDP=2.36D-07 DE=-7.08D-12 OVMax= 0.00D+00

 Cycle   7  Pass 1  IDiag  3:
 E=-0.137648264667334E-01 Delta-E=       -0.000000000000 Rises=F Damp=F
 DIIS: error= 8.59D-09 at cycle   7 NSaved=   7.
 NSaved= 7 IEnMin= 7 EnMin=-0.137648264667334E-01 IErMin= 7 ErrMin= 8.59D-09
 ErrMax= 8.59D-09  0.00D+00 EMaxC= 1.00D-01 BMatC= 1.57D-15 BMatP= 6.56D-14
 IDIUse=1 WtCom= 1.00D+00 WtEn= 0.00D+00
 Coeff-Com:  0.605D-03-0.191D-02 0.392D-02-0.887D-02 0.697D-01-0.333D+00
 Coeff-Com:  0.127D+01
 Coeff:      0.605D-03-0.191D-02 0.392D-02-0.887D-02 0.697D-01-0.333D+00
 Coeff:      0.127D+01
 Gap=     0.655 Goal=   None    Shift=    0.000
 RMSDP=1.49D-08 MaxDP=3.93D-08 DE=-3.48D-13 OVMax= 4.64D-08

 Cycle   8  Pass 1  IDiag  3:
 E=-0.137648264667440E-01 Delta-E=       -0.000000000000 Rises=F Damp=F
 DIIS: error= 1.83D-09 at cycle   8 NSaved=   8.
 NSaved= 8 IEnMin= 8 EnMin=-0.137648264667440E-01 IErMin= 8 ErrMin= 1.83D-09
 ErrMax= 1.83D-09  0.00D+00 EMaxC= 1.00D-01 BMatC= 5.34D-17 BMatP= 1.57D-15
 IDIUse=1 WtCom= 1.00D+00 WtEn= 0.00D+00
 Coeff-Com: -0.628D-06 0.531D-05-0.362D-04 0.145D-02-0.321D-01 0.182D+00
 Coeff-Com: -0.827D+00 0.168D+01
 Coeff:     -0.628D-06 0.531D-05-0.362D-04 0.145D-02-0.321D-01 0.182D+00
 Coeff:     -0.827D+00 0.168D+01
 Gap=     0.655 Goal=   None    Shift=    0.000
 RMSDP=3.42D-09 MaxDP=1.22D-08 DE=-1.07D-14 OVMax= 1.16D-08

 Cycle   9  Pass 2  IDiag  1:
 SCF Done:  E(RAM1) = -0.137648264667E-01 A.U. after    9 cycles
            NFock=  8  Conv=0.34D-08     -V/T= 0.9986
 KE=-9.877282356138D+00 PE=-1.325382277964D+01 EE= 9.036936175076D+00
 Leave Link  502 at Sun May 29 19:29:43 2022, MaxMem=   262144000 cpu:               0.1 elap:               0.0
 (Enter /binaries/g16/l701.exe)
 ... and contract with generalized density number  0.
 Compute integral first derivatives.
 Leave Link  701 at Sun May 29 19:29:43 2022, MaxMem=   262144000 cpu:               0.1 elap:               0.0
 (Enter /binaries/g16/l702.exe)
 L702 exits ... SP integral derivatives will be done elsewhere.
 Leave Link  702 at Sun May 29 19:29:43 2022, MaxMem=   262144000 cpu:               0.0 elap:               0.0
 (Enter /binaries/g16/l703.exe)
 Integral derivatives from FoFJK, PRISM(SPDF).
 Compute integral first derivatives, UseDBF=F ICtDFT=           0.
 Calling FoFJK, ICntrl=      2127 FMM=F ISym2X=0 I1Cent= 0 IOpClX= 0 NMat=1 NMatS=1 NMatT=0.
 FoFJK:  IHMeth= 8 ICntrl=    2127 DoSepK=F KAlg= 0 I1Cent=           0 FoldK=F
 IRaf=         0 NMat=       1 IRICut=       1 DoRegI=T DoRafI=F ISym2E= 0 IDoP0=3 IntGTp=3.
 FoFCou: FMM=F IPFlag=           0 FMFlag=      100000 FMFlg1=         800
         NFxFlg=           0 DoJE=F BraDBF=F KetDBF=F FulRan=T
         wScrn=  0.000000 ICntrl=      2127 IOpCl=  0 I1Cent=           0 NGrid=           0
         NMat0=    1 NMatS0=      1 NMatT0=    0 NMatD0=    1 NMtDS0=    0 NMtDT0=    0
 Symmetry not used in FoFCou.
 Leave Link  703 at Sun May 29 19:29:43 2022, MaxMem=   262144000 cpu:               0.1 elap:               0.0
 (Enter /binaries/g16/l716.exe)
 Dipole        = 5.32783812D-04-7.82909099D-06-4.28679005D-03
 ***** Axes restored to original set *****
 -------------------------------------------------------------------
 Center     Atomic                   Forces (Hartrees/Bohr)
 Number     Number              X              Y              Z
 -------------------------------------------------------------------
      1        6          -0.004674635   -0.003536061    0.006060878
      2        1           0.000715048    0.003085823   -0.001607592
      3        1           0.000724656   -0.000137991   -0.003457207
      4        1           0.004976851    0.001258852   -0.002171385
      5        1          -0.001741920   -0.000670623    0.001175306
 -------------------------------------------------------------------
 Cartesian Forces:  Max     0.006060878 RMS     0.002968037
 Leave Link  716 at Sun May 29 19:29:43 2022, MaxMem=   262144000 cpu:               0.1 elap:               0.0
 (Enter /binaries/g16/l103.exe)

 GradGradGradGradGradGradGradGradGradGradGradGradGradGradGradGradGradGrad
 Berny optimization.
 FormGI is forming the generalized inverse of G from B-inverse, IUseBI=4.
 Internal  Forces:  Max     0.003598688 RMS     0.001992928
 Search for a local minimum.
 Step number   1 out of a maximum of   25 on scan point     2 out of    11
 All quantities printed in internal units (Hartrees-Bohrs-Radians)
 RMS Force = .12920D-02 SwitMx=.10000D-02 MixMth= 1
 Mixed Optimization -- RFO/linear search
 Second derivative matrix not updated -- first step.
 The second derivative matrix:
                          R1        R2        R3        R4        A1
           R1           0.37670
           R2           0.00534   0.38145
           R3           0.00438   0.00552   0.37016
           R4           0.00383   0.00480   0.00376   0.37556
           A1          -0.00247  -0.00234  -0.00258  -0.00247   0.15993
[...]
 RMSDP=4.82D-07 MaxDP=1.97D-06 DE=-1.06D-09 OVMax= 1.69D-06

 Cycle   6  Pass 1  IDiag  3:
 E= 0.820090188570788E-02 Delta-E=       -0.000000000006 Rises=F Damp=F
 DIIS: error= 2.49D-08 at cycle   6 NSaved=   6.
 NSaved= 6 IEnMin= 6 EnMin= 0.820090188570788E-02 IErMin= 6 ErrMin= 2.49D-08
 ErrMax= 2.49D-08  0.00D+00 EMaxC= 1.00D-01 BMatC= 1.46D-14 BMatP= 9.90D-13
 IDIUse=1 WtCom= 1.00D+00 WtEn= 0.00D+00
 Coeff-Com: -0.373D-01 0.138D+00-0.268D+00 0.414D+00-0.617D+00 0.137D+01
 Coeff:     -0.373D-01 0.138D+00-0.268D+00 0.414D+00-0.617D+00 0.137D+01
 Gap=     0.582 Goal=   None    Shift=    0.000
 RMSDP=4.72D-08 MaxDP=1.80D-07 DE=-5.57D-12 OVMax= 0.00D+00

 Cycle   7  Pass 1  IDiag  3:
 E= 0.820090188565104E-02 Delta-E=       -0.000000000000 Rises=F Damp=F
 DIIS: error= 7.09D-09 at cycle   7 NSaved=   7.
 NSaved= 7 IEnMin= 7 EnMin= 0.820090188565104E-02 IErMin= 7 ErrMin= 7.09D-09
 ErrMax= 7.09D-09  0.00D+00 EMaxC= 1.00D-01 BMatC= 7.88D-16 BMatP= 1.46D-14
 IDIUse=1 WtCom= 1.00D+00 WtEn= 0.00D+00
 Coeff-Com:  0.104D-01-0.382D-01 0.744D-01-0.116D+00 0.185D+00-0.563D+00
 Coeff-Com:  0.145D+01
 Coeff:      0.104D-01-0.382D-01 0.744D-01-0.116D+00 0.185D+00-0.563D+00
 Coeff:      0.145D+01
 Gap=     0.582 Goal=   None    Shift=    0.000
 RMSDP=1.30D-08 MaxDP=3.62D-08 DE=-5.68D-14 OVMax= 4.94D-08

 Cycle   8  Pass 1  IDiag  3:
 E= 0.820090188562261E-02 Delta-E=       -0.000000000000 Rises=F Damp=F
 DIIS: error= 1.33D-09 at cycle   8 NSaved=   8.
 NSaved= 8 IEnMin= 8 EnMin= 0.820090188562261E-02 IErMin= 8 ErrMin= 1.33D-09
 ErrMax= 1.33D-09  0.00D+00 EMaxC= 1.00D-01 BMatC= 2.82D-17 BMatP= 7.88D-16
 IDIUse=1 WtCom= 1.00D+00 WtEn= 0.00D+00
 Coeff-Com: -0.862D-03 0.319D-02-0.622D-02 0.102D-01-0.203D-01 0.989D-01
 Coeff-Com: -0.439D+00 0.135D+01
 Coeff:     -0.862D-03 0.319D-02-0.622D-02 0.102D-01-0.203D-01 0.989D-01
 Coeff:     -0.439D+00 0.135D+01
 Gap=     0.582 Goal=   None    Shift=    0.000
 RMSDP=2.42D-09 MaxDP=7.21D-09 DE=-2.84D-14 OVMax= 0.00D+00

 SCF Done:  E(RAM1) =  0.820090188562E-02 A.U. after    8 cycles
            NFock=  8  Conv=0.24D-08     -V/T= 1.0008
 KE=-9.874796266181D+00 PE=-1.324224762216D+01 EE= 9.045561638224D+00
 Leave Link  502 at Sun May 29 19:29:48 2022, MaxMem=   262144000 cpu:               0.1 elap:               0.0
 (Enter /binaries/g16/l701.exe)
 ... and contract with generalized density number  0.
 Compute integral first derivatives.
 Leave Link  701 at Sun May 29 19:29:48 2022, MaxMem=   262144000 cpu:               0.1 elap:               0.0
 (Enter /binaries/g16/l702.exe)
 L702 exits ... SP integral derivatives will be done elsewhere.
 Leave Link  702 at Sun May 29 19:29:48 2022, MaxMem=   262144000 cpu:               0.1 elap:               0.0
 (Enter /binaries/g16/l703.exe)
 Integral derivatives from FoFJK, PRISM(SPDF).
 Compute integral first derivatives, UseDBF=F ICtDFT=           0.
 Calling FoFJK, ICntrl=      2127 FMM=F ISym2X=0 I1Cent= 0 IOpClX= 0 NMat=1 NMatS=1 NMatT=0.
 FoFJK:  IHMeth= 8 ICntrl=    2127 DoSepK=F KAlg= 0 I1Cent=           0 FoldK=F
 IRaf=         0 NMat=       1 IRICut=       1 DoRegI=T DoRafI=F ISym2E= 0 IDoP0=3 IntGTp=3.
 FoFCou: FMM=F IPFlag=           0 FMFlag=      100000 FMFlg1=         800
         NFxFlg=           0 DoJE=F BraDBF=F KetDBF=F FulRan=T
         wScrn=  0.000000 ICntrl=      2127 IOpCl=  0 I1Cent=           0 NGrid=           0
         NMat0=    1 NMatS0=      1 NMatT0=    0 NMatD0=    1 NMtDS0=    0 NMtDT0=    0
 Symmetry not used in FoFCou.
 Leave Link  703 at Sun May 29 19:29:48 2022, MaxMem=   262144000 cpu:               0.1 elap:               0.0
 (Enter /binaries/g16/l716.exe)
 Dipole        = 3.06614673D-03-2.25126819D-06-9.77989721D-02
 ***** Axes restored to original set *****
 -------------------------------------------------------------------
 Center     Atomic                   Forces (Hartrees/Bohr)
 Number     Number              X              Y              Z
 -------------------------------------------------------------------
      1        6          -0.080396686   -0.008124881    0.014198536
      2        1           0.025340413    0.003749222   -0.006999479
      3        1           0.025340494    0.004145586   -0.006771640
      4        1           0.029652245    0.000272014   -0.000501863
      5        1           0.000063535   -0.000041941    0.000074445
 -------------------------------------------------------------------
 Cartesian Forces:  Max     0.080396686 RMS     0.024523729
 Leave Link  716 at Sun May 29 19:29:48 2022, MaxMem=   262144000 cpu:               0.1 elap:               0.0
 (Enter /binaries/g16/l103.exe)

 GradGradGradGradGradGradGradGradGradGradGradGradGradGradGradGradGradGrad
 Berny optimization.
 Using GEDIIS/GDIIS optimizer.
 FormGI is forming the generalized inverse of G from B-inverse, IUseBI=4.
 Internal  Forces:  Max     0.030654396 RMS     0.010330761
 Search for a local minimum.
 Step number   2 out of a maximum of   25 on scan point    11 out of    11
 All quantities printed in internal units (Hartrees-Bohrs-Radians)
 RMS Force = .12138D-03 SwitMx=.10000D-02 MixMth= 2
 Mixed Optimization -- En-DIIS/RFO-DIIS
 Update second derivatives using D2CorX and points    1    2
 DE= -9.80D-05 DEPred=-9.63D-05 R= 1.02D+00
 TightC=F SS=  1.41D+00  RLast= 5.15D-02 DXNew= 8.4853D-01 1.5464D-01
 Trust test= 1.02D+00 RLast= 5.15D-02 DXMaxT set to 5.05D-01
 The second derivative matrix:
                          R1        R2        R3        R4        A1
           R1           0.38183
           R2           0.01014   0.38592
           R3          -0.02263  -0.02096   0.44237
           R4           0.00472   0.00586   0.02098   0.36893
           A1           0.03485   0.03515  -0.06767  -0.05107   0.11357
           A2          -0.00809  -0.00829   0.02294   0.01960   0.01986
           A3          -0.00118  -0.00124  -0.00790   0.00143   0.01519
           A4          -0.01163  -0.01161   0.02057   0.01722   0.01973
           A5          -0.00293  -0.00288  -0.00902   0.00027   0.01513
           A6          -0.01230  -0.01243   0.04172   0.01505  -0.01364
           D1           0.00885   0.00888  -0.01619  -0.00712   0.00812
           D2          -0.00324  -0.00359   0.01328   0.01393   0.01044
           D3          -0.00082  -0.00103   0.00715   0.00751   0.00519
           D4           0.00242   0.00257  -0.00613  -0.00642  -0.00525
           D5           0.00850   0.00831  -0.01155  -0.00202   0.01140
                          A2        A3        A4        A5        A6
           A2           0.15018
           A3          -0.00364   0.15857
           A4          -0.00972  -0.00390   0.15014
           A5          -0.00360  -0.00156  -0.00397   0.15826
           A6           0.00258  -0.00466   0.00329  -0.00431   0.17469
           D1          -0.00368   0.00473  -0.00377   0.00468  -0.01019
           D2          -0.00162  -0.00522  -0.00146  -0.00515  -0.00046
           D3          -0.00079  -0.00257  -0.00070  -0.00253  -0.00033
           D4           0.00084   0.00266   0.00076   0.00263   0.00013
           D5          -0.00356   0.00226  -0.00354   0.00225  -0.00999
                          D1        D2        D3        D4        D5
           D1           0.00615
           D2          -0.00068   0.01315
           D3          -0.00032   0.00409   0.00705
           D4           0.00035  -0.00406  -0.00203   0.00702
           D5           0.00141   0.00251   0.00128  -0.00123   0.00462
 ITU=  1  0
 Use linear search instead of GDIIS.
     Eigenvalues ---    0.05348   0.07986   0.15997   0.16410   0.35713
     Eigenvalues ---    0.37341   0.38990   0.470531000.000001000.00000
     Eigenvalues --- 1000.000001000.000001000.000001000.000001000.00000
 RFO step:  Lambda=-5.95294080D-07 EMin= 5.34813541D-02
 Quartic linear search produced a step of  0.05068.
 Iteration  1 RMS(Cart)=  0.00086105 RMS(Int)=  0.00000139
 Iteration  2 RMS(Cart)=  0.00000050 RMS(Int)=  0.00000129
 Iteration  1 RMS(Cart)=  0.00000109 RMS(Int)=  0.00000429
 Iteration  2 RMS(Cart)=  0.00000089 RMS(Int)=  0.00000460
 ITry= 1 IFail=0 DXMaxC= 1.74D-03 DCOld= 1.00D+10 DXMaxT= 5.05D-01 DXLimC= 3.00D+00 Rises=F
 Variable       Old X    -DE/DX   Delta X   Delta X   Delta X     New X
                                 (Linear)    (Quad)   (Total)
    R1        2.09706  -0.00112  -0.00027   0.00026  -0.00001   2.09705
    R2        2.09705  -0.00112  -0.00027   0.00027  -0.00000   2.09705
    R3        2.07522   0.00230   0.00046  -0.00046   0.00000   2.07522
    R4        2.18171  -0.00006   0.00054  -0.00057  -0.00003   2.18168
    A1        1.97306   0.00307   0.00140   0.00081   0.00221   1.97527
    A2        2.13086  -0.00597  -0.00064  -0.00037  -0.00101   2.12984
    A3        1.67253   0.00810  -0.00023  -0.00043  -0.00066   1.67186
    A4        2.13088  -0.00597  -0.00064  -0.00039  -0.00103   2.12985
    A5        1.67254   0.00810  -0.00023  -0.00045  -0.00068   1.67186
    A6        1.65803   0.01047   0.00008   0.00067   0.00076   1.65879
    D1       -2.78943   0.03065  -0.00071  -0.00033  -0.00103  -2.79046
    D2        1.98887   0.00566   0.00136   0.00068   0.00204   1.99091
    D3       -2.14714   0.00283   0.00068   0.00033   0.00101  -2.14613
    D4        2.14717  -0.00283  -0.00068  -0.00035  -0.00103   2.14614
    D5       -0.17514  -0.01685   0.00000   0.00000  -0.00000  -0.17514
         Item               Value     Threshold  Converged?
 Maximum Force            0.000235     0.000450     YES
 RMS     Force            0.000121     0.000300     YES
 Maximum Displacement     0.001735     0.001800     YES
 RMS     Displacement     0.000861     0.001200     YES
 Predicted change in Energy=-1.282746D-06
 Optimization completed.
    -- Stationary point found.
                           ----------------------------
                           !   Optimized Parameters   !
                           ! (Angstroms and Degrees)  !
 --------------------------                            --------------------------
 ! Name  Definition              Value          Derivative Info.                !
 --------------------------------------------------------------------------------
 ! R1    R(1,2)                  1.1097         -DE/DX =   -0.0011              !
 ! R2    R(1,3)                  1.1097         -DE/DX =   -0.0011              !
 ! R3    R(1,4)                  1.0982         -DE/DX =    0.0023              !
 ! R4    R(1,5)                  1.1545         -DE/DX =   -0.0001              !
 ! A1    A(2,1,3)              113.0478         -DE/DX =    0.0031              !
 ! A2    A(2,1,4)              122.0891         -DE/DX =   -0.006               !
 ! A3    A(2,1,5)               95.8287         -DE/DX =    0.0081              !
 ! A4    A(3,1,4)              122.0905         -DE/DX =   -0.006               !
 ! A5    A(3,1,5)               95.8295         -DE/DX =    0.0081              !
 ! A6    A(4,1,5)               94.9983         -DE/DX =    0.0105              !
 ! D1    D(2,1,4,3)           -159.8223         -DE/DX =    0.0307              !
 ! D2    D(2,1,5,3)            113.9539         -DE/DX =    0.0057              !
 ! D3    D(2,1,5,4)           -123.0222         -DE/DX =    0.0028              !
 ! D4    D(3,1,5,4)            123.0238         -DE/DX =   -0.0028              !
 ! D5    D(1,2,3,4)            -10.0349         -DE/DX =   -0.0169              !
 --------------------------------------------------------------------------------
 Lowest energy point so far.  Saving SCF results.
 Summary of Optimized Potential Surface Scan (add -0.0 to energies):
                           1         2         3         4         5
     Eigenvalues --    -0.01402  -0.01381  -0.01314  -0.01200  -0.01039
           R1           1.11161   1.11224   1.11270   1.11295   1.11300
           R2           1.11145   1.11224   1.11272   1.11296   1.11300
           R3           1.11186   1.10837   1.10482   1.10201   1.09982
           R4           1.11161   1.11401   1.11728   1.12084   1.12470
           A1         109.50610 108.87179 108.60701 108.52394 108.60784
           A2         109.39440 111.35153 113.21337 114.98566 116.63972
           A3         109.50267 108.46740 107.23469 105.94702 104.61068
           A4         109.43842 111.35657 113.21059 114.98444 116.64018
           A5         109.52192 108.46881 107.23323 105.94688 104.61115
           A6         109.46371 108.23847 106.99412 105.62442 104.16963
           D1        -119.97568-121.71889-124.17118-127.14508-130.61868
           D2         120.09315 118.10376 116.48753 115.16905 114.12503
           D3        -119.92057-120.94467-121.75828-122.41622-122.93711
           D4         119.98627 120.95157 121.75418 122.41473 122.93786
           D5         -35.33562 -32.80542 -30.27517 -27.74517 -25.21512
                           6         7         8         9        10
     Eigenvalues --    -0.00832  -0.00580  -0.00286   0.00048   0.00418
           R1           1.11285   1.11253   1.11204   1.11139   1.11061
           R2           1.11285   1.11252   1.11203   1.11139   1.11061
           R3           1.09820   1.09714   1.09662   1.09664   1.09716
           R4           1.12890   1.13343   1.13828   1.14342   1.14885
           A1         108.87530 109.33203 109.97751 110.81031 111.83296
           A2         118.13568 119.43581 120.50683 121.32035 121.85304
           A3         103.22232 101.78973 100.32352  98.83443  97.33261
           A4         118.13691 119.43726 120.50830 121.32180 121.85449
           A5         103.22291 101.79033 100.32412  98.83506  97.33327
           A6         102.66311 101.12396  99.56969  98.01868  96.48874
           D1        -134.58750-139.01740-143.84758-148.99455-154.35853
           D2         113.36443 112.89432 112.71642 112.83112 113.24235
           D3        -123.31697-123.55194-123.64091-123.58359-123.37800
           D4         123.31859 123.55374 123.64267 123.58528 123.37965
           D5         -22.68509 -20.15505 -17.62491 -15.09496 -12.56494
                          11
     Eigenvalues --     0.00820
           R1           1.10971
           R2           1.10971
           R3           1.09816
           R4           1.15451
           A1         113.04784
           A2         122.08907
           A3          95.82875
           A4         122.09054
           A5          95.82945
           A6          94.99828
           D1        -159.82228
           D2         113.95394
           D3        -123.02222
           D4         123.02384
           D5         -10.03485
 Largest change from initial coordinates is atom    3       1.116 Angstoms.
 GradGradGradGradGradGradGradGradGradGradGradGradGradGradGradGradGradGrad

 Leave Link  103 at Sun May 29 19:29:48 2022, MaxMem=   262144000 cpu:               0.0 elap:               0.0
 (Enter /binaries/g16/l202.exe)
                          Input orientation:                          
 ---------------------------------------------------------------------
 Center     Atomic      Atomic             Coordinates (Angstroms)
 Number     Number       Type             X           Y           Z
 ---------------------------------------------------------------------
      1          6           0        4.458244    3.670579   -0.022437
      2          1           0        4.577327    2.568834    0.036236
      3          1           0        4.578298    4.173440    0.959487
      4          1           0        4.541421    4.216626   -0.971577
      5          1           0        3.303810    3.664521   -0.010709
 ---------------------------------------------------------------------
                    Distance matrix (angstroms):
                    1          2          3          4          5
     1  C    0.000000
     2  H    1.109714   0.000000
     3  H    1.109711   1.851258   0.000000
     4  H    1.098159   1.931888   1.931899   0.000000
     5  H    1.154510   1.680648   1.680655   1.661255   0.000000
 Stoichiometry    CH4
 Framework group  C1[X(CH4)]
 Deg. of freedom     9
 Full point group                 C1      NOp   1
 RotChk:  IX=1 Diff= 1.04D-14
 Largest Abelian subgroup         C1      NOp   1
 Largest concise Abelian subgroup C1      NOp   1
                         Standard orientation:                         
 ---------------------------------------------------------------------
 Center     Atomic      Atomic             Coordinates (Angstroms)
 Number     Number       Type             X           Y           Z
 ---------------------------------------------------------------------
      1          6           0        0.005570    0.000004    0.083871
      2          1           0       -0.601997   -0.925663    0.157824
      3          1           0       -0.602109    0.925595    0.157802
      4          1           0        1.091179    0.000058    0.249416
      5          1           0        0.079509   -0.000013   -1.068269
 ---------------------------------------------------------------------
 Rotational constants (GHZ):         165.2177597         154.5900794         137.9210573
 Leave Link  202 at Sun May 29 19:29:48 2022, MaxMem=   262144000 cpu:               0.0 elap:               0.0
 (Enter /binaries/g16/l601.exe)
 Copying SCF densities to generalized density rwf, IOpCl= 0 IROHF=0.

 **********************************************************************

            Population analysis using the SCF Density.

 **********************************************************************

 Orbital symmetries:
       Occupied  (A) (A) (A) (A)
       Virtual   (A) (A) (A) (A)
 The electronic state is 1-A.
 Alpha  occ. eigenvalues --   -1.06141  -0.51104  -0.49453  -0.44599
 Alpha virt. eigenvalues --    0.13596   0.17507   0.18508   0.19011
          Condensed to atoms (all electrons):
               1          2          3          4          5
     1  C    4.280552   0.000000   0.000000   0.000000   0.000000
     2  H    0.000000   0.915855   0.000000   0.000000   0.000000
     3  H    0.000000   0.000000   0.915853   0.000000   0.000000
     4  H    0.000000   0.000000   0.000000   0.903440   0.000000
     5  H    0.000000   0.000000   0.000000   0.000000   0.984300
 Mulliken charges:
               1
     1  C   -0.280552
     2  H    0.084145
     3  H    0.084147
     4  H    0.096560
     5  H    0.015700
 Sum of Mulliken charges =   0.00000
 Mulliken charges with hydrogens summed into heavy atoms:
               1
     1  C    0.000000
 Charge=              0.0000 electrons
 Dipole moment (field-independent basis, Debye):
    X=              0.0078    Y=             -0.0000    Z=             -0.2486  Tot=              0.2487
 N-N= 1.407968315200D+01 E-N=-1.324224762467D+01  KE=-9.874796266181D+00
 Leave Link  601 at Sun May 29 19:29:48 2022, MaxMem=   262144000 cpu:               0.1 elap:               0.0
 (Enter /binaries/g16/l9999.exe)
 Unable to Open any file for archive entry.
 1\1\GINC-WEB\Scan\RAM1\ZDO\C1H4\CALCUS\29-May-2022\0\\#p opt(modredund
 ant) AM1\\File created by ccinput\\0,1\C,4.4582441481,3.6705791049,-0.
 0224367704\H,4.5773270196,2.5688340951,0.0362355727\H,4.5782983275,4.1
 73440293,0.9594873696\H,4.5414207799,4.2166258984,-0.9715769416\H,3.30
 38097249,3.6645206085,-0.0107092303\\Version=ES64L-G16RevC.01\State=1-
 A\HF=-0.0140242,-0.0138104,-0.0131373,-0.0119961,-0.0103868,-0.0083168
 ,-0.0058009,-0.0028606,0.000476,0.0041758,0.0082009\RMSD=8.420e-09,1.0
 92e-09,9.049e-09,9.868e-09,1.784e-09,4.393e-09,5.564e-09,7.068e-09,8.4
 39e-09,9.819e-09,2.422e-09\PG=C01 [X(C1H4)]\\@
 The archive entry for this job was punched.


 TIME GOES, YOU SAY?  AH NO!
 ALAS, TIME STAYS, WE GO.
    -- A. DOBSON (1840-1921)
 Job cpu time:       0 days  0 hours  0 minutes 20.7 seconds.
 Elapsed time:       0 days  0 hours  0 minutes  5.3 seconds.
 File lengths (MBytes):  RWF=      6 Int=      0 D2E=      0 Chk=      2 Scr=      1
 Normal termination of Gaussian 16 at Sun May 29 19:29:48 2022.
