 Entering Gaussian System, Link 0=g16
 Input=calc.com
 Output=calc.log
 Initial command:
 /binaries/g16/l1.exe "/calcus/scratch/scr/43/Gau-218.inp" -scrdir="/calcus/scratch/scr/43/"
 Entering Link 1 = /binaries/g16/l1.exe PID=       220.
  
 Copyright (c) 1988-2019, Gaussian, Inc.  All Rights Reserved.
  
 This is part of the Gaussian(R) 16 program.  It is based on
 the Gaussian(R) 09 system (copyright 2009, Gaussian, Inc.),
 the Gaussian(R) 03 system (copyright 2003, Gaussian, Inc.),
 the Gaussian(R) 98 system (copyright 1998, Gaussian, Inc.),
 the Gaussian(R) 94 system (copyright 1995, Gaussian, Inc.),
 the Gaussian 92(TM) system (copyright 1992, Gaussian, Inc.),
 the Gaussian 90(TM) system (copyright 1990, Gaussian, Inc.),
 the Gaussian 88(TM) system (copyright 1988, Gaussian, Inc.),
 the Gaussian 86(TM) system (copyright 1986, Carnegie Mellon
 University), and the Gaussian 82(TM) system (copyright 1983,
 Carnegie Mellon University). Gaussian is a federally registered
 trademark of Gaussian, Inc.
  
 This software contains proprietary and confidential information,
 including trade secrets, belonging to Gaussian, Inc.
  
 This software is provided under written license and may be
 used, copied, transmitted, or stored only in accord with that
 written license.
  
 The following legend is applicable only to US Government
 contracts under FAR:
  
                    RESTRICTED RIGHTS LEGEND
  
 Use, reproduction and disclosure by the US Government is
 subject to restrictions as set forth in subparagraphs (a)
 and (c) of the Commercial Computer Software - Restricted
 Rights clause in FAR 52.227-19.
  
 Gaussian, Inc.
 340 Quinnipiac St., Bldg. 40, Wallingford CT 06492
  
  
 ---------------------------------------------------------------
 Warning -- This program may not be used in any manner that
 competes with the business of Gaussian, Inc. or will provide
 assistance to any competitor of Gaussian, Inc.  The licensee
 of this program is prohibited from giving any competitor of
 Gaussian, Inc. access to this program.  By using this program,
 the user acknowledges that Gaussian, Inc. is engaged in the
 business of creating and licensing software in the field of
 computational chemistry and represents and warrants to the
 licensee that it is not a competitor of Gaussian, Inc. and that
 it will not use this program in any manner prohibited above.
 ---------------------------------------------------------------
  

 Cite this work as:
 Gaussian 16, Revision C.01,
 M. J. Frisch, G. W. Trucks, H. B. Schlegel, G. E. Scuseria, 
 M. A. Robb, J. R. Cheeseman, G. Scalmani, V. Barone, 
 G. A. Petersson, H. Nakatsuji, X. Li, M. Caricato, A. V. Marenich, 
 J. Bloino, B. G. Janesko, R. Gomperts, B. Mennucci, H. P. Hratchian, 
 J. V. Ortiz, A. F. Izmaylov, J. L. Sonnenberg, D. Williams-Young, 
 F. Ding, F. Lipparini, F. Egidi, J. Goings, B. Peng, A. Petrone, 
 T. Henderson, D. Ranasinghe, V. G. Zakrzewski, J. Gao, N. Rega, 
 G. Zheng, W. Liang, M. Hada, M. Ehara, K. Toyota, R. Fukuda, 
 J. Hasegawa, M. Ishida, T. Nakajima, Y. Honda, O. Kitao, H. Nakai, 
 T. Vreven, K. Throssell, J. A. Montgomery, Jr., J. E. Peralta, 
 F. Ogliaro, M. J. Bearpark, J. J. Heyd, E. N. Brothers, K. N. Kudin, 
 V. N. Staroverov, T. A. Keith, R. Kobayashi, J. Normand, 
 K. Raghavachari, A. P. Rendell, J. C. Burant, S. S. Iyengar, 
 J. Tomasi, M. Cossi, J. M. Millam, M. Klene, C. Adamo, R. Cammi, 
 J. W. Ochterski, R. L. Martin, K. Morokuma, O. Farkas, 
 J. B. Foresman, and D. J. Fox, Gaussian, Inc., Wallingford CT, 2019.
 
 ******************************************
 Gaussian 16:  ES64L-G16RevC.01  3-Jul-2019
                 5-Sep-2022 
 ******************************************
 %chk=in.chk
 %nproc=1
 Will use up to    1 processors via shared memory.
 %mem=2000MB
 -----------------------------------
 #p opt(ts, NoEigenTest, CalcFC) AM1
 -----------------------------------
 1/5=1,10=4,11=1,18=20,26=1,38=1/1,3;
 2/9=110,12=2,17=6,18=5,40=1/2;
 3/5=2,25=1,41=700000,71=2,140=1/1,2,3;
 4/35=1/1;
 5/5=2,35=1,38=5/2;
 8/6=4,10=90,11=11/1;
 11/6=1,8=1,9=11,15=111,16=1/1,2,10;
 10/6=1,13=1/2;
 6/7=2,8=2,9=2,10=2,28=1/1;
 7/10=1,25=1/1,2,3,16;
 1/5=1,10=4,11=1,18=20,26=1/3(2);
 2/9=110/2;
 99//99;
 2/9=110/2;
 3/5=2,25=1,41=700000,71=1,135=20/1,2,3;
 4/5=5,16=3,35=1/1;
 5/5=2,35=1,38=5/2;
 7//1,2,3,16;
 1/5=1,11=1,18=20,26=1/3(-5);
 2/9=110/2;
 6/7=2,8=2,9=2,10=2,19=2,28=1/1;
 99/9=1/99;
 Leave Link    1 at Mon Sep  5 10:41:12 2022, MaxMem=   262144000 cpu:               0.0 elap:               0.0
 (Enter /binaries/g16/l101.exe)
 -----------------------
 File created by ccinput
 -----------------------
 Symbolic Z-matrix:
 Charge =  0 Multiplicity = 1
 N                     1.08764  -0.33995  -0.00973 
 H                     1.99827   0.05503   0.00651 
 H                     0.59454  -0.4856    0.83949 
 H                     0.66998  -0.5893   -0.87512 
 
 ITRead=  0  0  0  0
 MicOpt= -1 -1 -1 -1
 NAtoms=      4 NQM=        4 NQMF=       0 NMMI=      0 NMMIF=      0
                NMic=       0 NMicF=      0.
                    Isotopes and Nuclear Properties:
 (Nuclear quadrupole moments (NQMom) in fm**2, nuclear magnetic moments (NMagM)
  in nuclear magnetons)

  Atom         1           2           3           4
 IAtWgt=          14           1           1           1
 AtmWgt=  14.0030740   1.0078250   1.0078250   1.0078250
 NucSpn=           2           1           1           1
 AtZEff=  -0.0000000  -0.0000000  -0.0000000  -0.0000000
 NQMom=    2.0440000   0.0000000   0.0000000   0.0000000
 NMagM=    0.4037610   2.7928460   2.7928460   2.7928460
 AtZNuc=   7.0000000   1.0000000   1.0000000   1.0000000
 Leave Link  101 at Mon Sep  5 10:41:12 2022, MaxMem=   262144000 cpu:               0.1 elap:               0.1
 (Enter /binaries/g16/l103.exe)

 GradGradGradGradGradGradGradGradGradGradGradGradGradGradGradGradGradGrad
 Berny optimization.
 Initialization pass.
                           ----------------------------
                           !    Initial Parameters    !
                           ! (Angstroms and Degrees)  !
 --------------------------                            --------------------------
 ! Name  Definition              Value          Derivative Info.                !
 --------------------------------------------------------------------------------
 ! R1    R(1,2)                  0.9927         calculate D2E/DX2 analytically  !
 ! R2    R(1,3)                  0.9927         calculate D2E/DX2 analytically  !
 ! R3    R(1,4)                  0.9927         calculate D2E/DX2 analytically  !
 ! A1    A(2,1,3)              120.0007         calculate D2E/DX2 analytically  !
 ! A2    A(2,1,4)              120.0077         calculate D2E/DX2 analytically  !
 ! A3    A(3,1,4)              119.9916         calculate D2E/DX2 analytically  !
 ! D1    D(2,1,4,3)           -179.9991         calculate D2E/DX2 analytically  !
 --------------------------------------------------------------------------------
 Trust Radius=3.00D-01 FncErr=1.00D-07 GrdErr=1.00D-07 EigMax=2.50D+02 EigMin=1.00D-04
 Number of steps in this run=     20 maximum allowed number of steps=    100.
 Search for a saddle point of order  1.
 GradGradGradGradGradGradGradGradGradGradGradGradGradGradGradGradGradGrad

 Leave Link  103 at Mon Sep  5 10:41:12 2022, MaxMem=   262144000 cpu:               0.0 elap:               0.0
 (Enter /binaries/g16/l202.exe)
                          Input orientation:                          
 ---------------------------------------------------------------------
 Center     Atomic      Atomic             Coordinates (Angstroms)
 Number     Number       Type             X           Y           Z
 ---------------------------------------------------------------------
      1          7           0        1.087641   -0.339946   -0.009725
      2          1           0        1.998268    0.055028    0.006512
      3          1           0        0.594540   -0.485602    0.839492
      4          1           0        0.669981   -0.589301   -0.875119
 ---------------------------------------------------------------------
                    Distance matrix (angstroms):
                    1          2          3          4
     1  N    0.000000
     2  H    0.992729   0.000000
     3  H    0.992741   1.719474   0.000000
     4  H    0.992736   1.719530   1.719401   0.000000
 Stoichiometry    H3N
 Framework group  C1[X(H3N)]
 Deg. of freedom     6
 Full point group                 C1      NOp   1
 Largest Abelian subgroup         C1      NOp   1
 Largest concise Abelian subgroup C1      NOp   1
                         Standard orientation:                         
 ---------------------------------------------------------------------
 Center     Atomic      Atomic             Coordinates (Angstroms)
 Number     Number       Type             X           Y           Z
 ---------------------------------------------------------------------
      1          7           0        0.000012    0.000009   -0.000001
      2          1           0        0.967933    0.220553    0.000003
      3          1           0       -0.292968   -0.948515    0.000003
      4          1           0       -0.675048    0.727896    0.000003
 ---------------------------------------------------------------------
 Rotational constants (GHZ):         339.2435669         339.1845272         169.6070223
 Leave Link  202 at Mon Sep  5 10:41:12 2022, MaxMem=   262144000 cpu:               0.0 elap:               0.0
 (Enter /binaries/g16/l301.exe)
 Standard basis: VSTO-6G (5D, 7F)
 Ernie: Thresh=  0.10000D-02 Tol=  0.10000D-05 Strict=F.
  NNHCO=     0 NNPyr=     0 NCTC=     0               EPep=         0.000000000
    EC=         6.157102775  ECS=         0.605339003   EG=         0.061041126
   EHC=         0.000000000  EAt=        -8.694780649  AtH=         0.429166429
 EPDDG=         0.000000000  ECC=         6.823482904 EAtT=         9.123947077
 There are     7 symmetry adapted cartesian basis functions of A   symmetry.
 There are     7 symmetry adapted basis functions of A   symmetry.
     7 basis functions,    42 primitive gaussians,     7 cartesian basis functions
     4 alpha electrons        4 beta electrons
       nuclear repulsion energy        15.9474299813 Hartrees.
 IExCor=    0 DFT=F Ex=HF Corr=None ExCW=0 ScaHFX=  1.000000
 ScaDFX=  1.000000  1.000000  1.000000  1.000000 ScalE2=  1.000000  1.000000
 IRadAn=      5 IRanWt=     -1 IRanGd=            0 ICorTp=0 IEmpDi=  4
 Integral buffers will be    131072 words long.
 Regular integral format.
 Two-electron integral symmetry is turned off.
 Leave Link  301 at Mon Sep  5 10:41:12 2022, MaxMem=   262144000 cpu:               0.0 elap:               0.0
 (Enter /binaries/g16/l302.exe)
 Do NDO integrals.
 NPDir=0 NMtPBC=     1 NCelOv=     1 NCel=       1 NClECP=     1 NCelD=      1
         NCelK=      1 NCelE2=     1 NClLst=     1 CellRange=     0.0.
 One-electron integrals computed using PRISM.
 NBasis=     7 RedAO= F EigKep=  0.00D+00  NBF=     7
 NBsUse=     7 1.00D-04 EigRej=  0.00D+00 NBFU=     7
 Leave Link  302 at Mon Sep  5 10:41:12 2022, MaxMem=   262144000 cpu:               0.0 elap:               0.0
 (Enter /binaries/g16/l303.exe)
 DipDrv:  MaxL=1.
 Leave Link  303 at Mon Sep  5 10:41:12 2022, MaxMem=   262144000 cpu:               0.0 elap:               0.0
 (Enter /binaries/g16/l401.exe)
 Simple Huckel Guess.
 JPrj=0 DoOrth=F DoCkMO=F.
 Leave Link  401 at Mon Sep  5 10:41:12 2022, MaxMem=   262144000 cpu:               0.0 elap:               0.0
 (Enter /binaries/g16/l502.exe)
 Keep J ints in memory in canonical form, NReq=859273.
 FoFCou: FMM=F IPFlag=           0 FMFlag=           0 FMFlg1=           0
         NFxFlg=           0 DoJE=F BraDBF=F KetDBF=F FulRan=T
         wScrn=  0.000000 ICntrl=       600 IOpCl=  2 I1Cent=           0 NGrid=           0
         NMat0=    1 NMatS0=     13 NMatT0=    0 NMatD0=    1 NMtDS0=    0 NMtDT0=    0
 Symmetry not used in FoFCou.
 Two-electron integral symmetry not used.
 Closed shell SCF:
 Using DIIS extrapolation, IDIIS=  1040.
 Overlap will be assumed to be unity.
 NGot=   262144000 LenX=   262083560 LenY=   262082678
 Requested convergence on RMS density matrix=1.00D-08 within 128 cycles.
 Requested convergence on MAX density matrix=1.00D-06.
 Requested convergence on             energy=1.00D-06.
 No special actions if energy rises.

 Cycle   1  Pass 1  IDiag  1:
 E= 0.793333082458982E-01
 DIIS: error= 5.74D-02 at cycle   1 NSaved=   1.
 NSaved= 1 IEnMin= 1 EnMin= 0.793333082458982E-01 IErMin= 1 ErrMin= 5.74D-02
 ErrMax= 5.74D-02  0.00D+00 EMaxC= 1.00D-01 BMatC= 4.05D-02 BMatP= 4.05D-02
 IDIUse=3 WtCom= 4.26D-01 WtEn= 5.74D-01
 Coeff-Com:  0.100D+01
 Coeff-En:   0.100D+01
 Coeff:      0.100D+01
 GapD=    2.000 DampG=2.000 DampE=0.500 DampFc=1.0000 IDamp=-1.
 RMSDP=3.20D-02 MaxDP=1.51D-01              OVMax= 0.00D+00

 Cycle   2  Pass 1  IDiag  1:
 E= 0.255433847046405E-03 Delta-E=       -0.079077874399 Rises=F Damp=F
 DIIS: error= 1.33D-02 at cycle   2 NSaved=   2.
 NSaved= 2 IEnMin= 2 EnMin= 0.255433847046405E-03 IErMin= 2 ErrMin= 1.33D-02
 ErrMax= 1.33D-02  0.00D+00 EMaxC= 1.00D-01 BMatC= 2.19D-03 BMatP= 4.05D-02
 IDIUse=3 WtCom= 8.67D-01 WtEn= 1.33D-01
 Coeff-Com: -0.303D+00 0.130D+01
 Coeff-En:   0.000D+00 0.100D+01
 Coeff:     -0.263D+00 0.126D+01
 RMSDP=9.21D-03 MaxDP=4.03D-02 DE=-7.91D-02 OVMax= 0.00D+00

 Cycle   3  Pass 1  IDiag  3:
 E=-0.415101432693277E-02 Delta-E=       -0.004406448174 Rises=F Damp=F
 DIIS: error= 4.51D-04 at cycle   3 NSaved=   3.
 NSaved= 3 IEnMin= 3 EnMin=-0.415101432693277E-02 IErMin= 3 ErrMin= 4.51D-04
 ErrMax= 4.51D-04  0.00D+00 EMaxC= 1.00D-01 BMatC= 3.12D-06 BMatP= 2.19D-03
 IDIUse=3 WtCom= 9.95D-01 WtEn= 4.51D-03
 Coeff-Com:  0.173D+00-0.800D+00 0.163D+01
 Coeff-En:   0.000D+00 0.000D+00 0.100D+01
 Coeff:      0.172D+00-0.796D+00 0.162D+01
 Gap=     0.496 Goal=   None    Shift=    0.000
 RMSDP=4.52D-04 MaxDP=1.50D-03 DE=-4.41D-03 OVMax= 1.66D-03

 Cycle   4  Pass 1  IDiag  3:
 E=-0.415815735188296E-02 Delta-E=       -0.000007143025 Rises=F Damp=F
 DIIS: error= 4.07D-05 at cycle   4 NSaved=   4.
 NSaved= 4 IEnMin= 4 EnMin=-0.415815735188296E-02 IErMin= 4 ErrMin= 4.07D-05
 ErrMax= 4.07D-05  0.00D+00 EMaxC= 1.00D-01 BMatC= 2.01D-08 BMatP= 3.12D-06
 IDIUse=1 WtCom= 1.00D+00 WtEn= 0.00D+00
 Coeff-Com:  0.184D+00-0.854D+00 0.174D+01-0.677D-01
 Coeff:      0.184D+00-0.854D+00 0.174D+01-0.677D-01
 Gap=     0.496 Goal=   None    Shift=    0.000
 RMSDP=2.52D-06 MaxDP=1.05D-05 DE=-7.14D-06 OVMax= 1.16D-05

 Cycle   5  Pass 1  IDiag  3:
 E=-0.415815022998522E-02 Delta-E=        0.000000007122 Rises=F Damp=F
 DIIS: error= 4.40D-05 at cycle   5 NSaved=   5.
 NSaved= 5 IEnMin= 4 EnMin=-0.415815735188296E-02 IErMin= 4 ErrMin= 4.07D-05
 ErrMax= 4.40D-05  0.00D+00 EMaxC= 1.00D-01 BMatC= 2.36D-08 BMatP= 2.01D-08
 IDIUse=1 WtCom= 1.00D+00 WtEn= 0.00D+00
 Coeff-Com: -0.907D-02 0.462D-01-0.103D+00-0.124D-01 0.108D+01
 Coeff:     -0.907D-02 0.462D-01-0.103D+00-0.124D-01 0.108D+01
 Gap=     0.497 Goal=   None    Shift=    0.000
 RMSDP=3.26D-05 MaxDP=1.42D-04 DE= 7.12D-09 OVMax= 1.58D-04

 Cycle   6  Pass 1  IDiag  3:
 E=-0.415819728022804E-02 Delta-E=       -0.000000047050 Rises=F Damp=F
 DIIS: error= 2.09D-06 at cycle   6 NSaved=   6.
 NSaved= 6 IEnMin= 6 EnMin=-0.415819728022804E-02 IErMin= 6 ErrMin= 2.09D-06
 ErrMax= 2.09D-06  0.00D+00 EMaxC= 1.00D-01 BMatC= 5.28D-11 BMatP= 2.01D-08
 IDIUse=1 WtCom= 1.00D+00 WtEn= 0.00D+00
 Coeff-Com: -0.586D-03 0.984D-02-0.360D-01-0.223D-01 0.182D+01-0.774D+00
 Coeff:     -0.586D-03 0.984D-02-0.360D-01-0.223D-01 0.182D+01-0.774D+00
 Gap=     0.497 Goal=   None    Shift=    0.000
 RMSDP=1.47D-06 MaxDP=6.43D-06 DE=-4.71D-08 OVMax= 7.14D-06

 Cycle   7  Pass 1  IDiag  3:
 E=-0.415819738565837E-02 Delta-E=       -0.000000000105 Rises=F Damp=F
 DIIS: error= 1.36D-08 at cycle   7 NSaved=   7.
 NSaved= 7 IEnMin= 7 EnMin=-0.415819738565837E-02 IErMin= 7 ErrMin= 1.36D-08
 ErrMax= 1.36D-08  0.00D+00 EMaxC= 1.00D-01 BMatC= 5.45D-15 BMatP= 5.28D-11
 IDIUse=1 WtCom= 1.00D+00 WtEn= 0.00D+00
 Large coefficients: NSaved=  7 BigCof=   20.53 CofMax=   10.00 Det=-3.09D-19
 Inversion failed.  Reducing to  6 matrices.
 Large coefficients: NSaved=  6 BigCof=   17.14 CofMax=   10.00 Det=-3.75D-19
 Inversion failed.  Reducing to  5 matrices.
 Coeff-Com:  0.379D-04-0.146D-01 0.730D-01 0.125D+01-0.308D+00
 Coeff:      0.379D-04-0.146D-01 0.730D-01 0.125D+01-0.308D+00
 Gap=     0.497 Goal=   None    Shift=    0.000
 RMSDP=2.70D-08 MaxDP=5.76D-08 DE=-1.05D-10 OVMax= 1.08D-07

 Cycle   8  Pass 1  IDiag  3:
 E=-0.415819738568501E-02 Delta-E=       -0.000000000000 Rises=F Damp=F
 DIIS: error= 7.36D-09 at cycle   8 NSaved=   6.
 NSaved= 6 IEnMin= 6 EnMin=-0.415819738568501E-02 IErMin= 6 ErrMin= 7.36D-09
 ErrMax= 7.36D-09  0.00D+00 EMaxC= 1.00D-01 BMatC= 1.15D-15 BMatP= 5.45D-15
 IDIUse=1 WtCom= 1.00D+00 WtEn= 0.00D+00
 Coeff-Com: -0.777D-04 0.817D-02 0.486D-01 0.120D+01-0.219D+01 0.193D+01
 Coeff:     -0.777D-04 0.817D-02 0.486D-01 0.120D+01-0.219D+01 0.193D+01
 Gap=     0.497 Goal=   None    Shift=    0.000
 RMSDP=2.41D-08 MaxDP=5.81D-08 DE=-2.66D-14 OVMax= 1.09D-07

 Cycle   9  Pass 1  IDiag  3:
 E=-0.415819738571166E-02 Delta-E=       -0.000000000000 Rises=F Damp=F
 DIIS: error= 1.01D-09 at cycle   9 NSaved=   7.
 NSaved= 7 IEnMin= 7 EnMin=-0.415819738571166E-02 IErMin= 7 ErrMin= 1.01D-09
 ErrMax= 1.01D-09  0.00D+00 EMaxC= 1.00D-01 BMatC= 2.09D-17 BMatP= 1.15D-15
 IDIUse=1 WtCom= 1.00D+00 WtEn= 0.00D+00
 Coeff-Com:  0.845D-04-0.821D-02-0.662D-01-0.158D+01 0.254D+01-0.189D+01
 Coeff-Com:  0.200D+01
 Coeff:      0.845D-04-0.821D-02-0.662D-01-0.158D+01 0.254D+01-0.189D+01
 Coeff:      0.200D+01
 Gap=     0.497 Goal=   None    Shift=    0.000
 RMSDP=3.72D-09 MaxDP=9.28D-09 DE=-2.66D-14 OVMax= 1.75D-08

 Cycle  10  Pass 2  IDiag  1:
 SCF Done:  E(RAM1) = -0.415819738571E-02 A.U. after   10 cycles
            NFock=  9  Conv=0.37D-08     -V/T= 0.9997
 KE=-1.505311661883D+01 PE=-1.145083948566D+01 EE= 1.055236792579D+01
 Leave Link  502 at Mon Sep  5 10:41:12 2022, MaxMem=   262144000 cpu:               0.0 elap:               0.0
 (Enter /binaries/g16/l801.exe)
 Range of M.O.s used for correlation:     1     7
 NBasis=     7 NAE=     4 NBE=     4 NFC=     0 NFV=     0
 NROrb=      7 NOA=     4 NOB=     4 NVA=     3 NVB=     3
 Leave Link  801 at Mon Sep  5 10:41:12 2022, MaxMem=   262144000 cpu:               0.0 elap:               0.0
 (Enter /binaries/g16/l1101.exe)
 Using compressed storage, NAtomX=     4.
 Will process      5 centers per pass.
 Leave Link 1101 at Mon Sep  5 10:41:12 2022, MaxMem=   262144000 cpu:               0.0 elap:               0.0
 (Enter /binaries/g16/l1102.exe)
 Symmetrizing basis deriv contribution to polar:
 IMax=3 JMax=2 DiffMx= 0.00D+00
 Leave Link 1102 at Mon Sep  5 10:41:12 2022, MaxMem=   262144000 cpu:               0.0 elap:               0.0
 (Enter /binaries/g16/l1110.exe)
 Forming Gx(P) for the SCF density, NAtomX=     4.
 Integral derivatives from FoFJK, PRISM(SPDF).
 Do as many integral derivatives as possible in FoFJK.
 G2DrvN: MDV=     262084584.
 G2DrvN: will do     5 centers at a time, making    1 passes.
 Calling FoFCou, ICntrl=  3107 FMM=F I1Cent=   0 AccDes= 0.00D+00.
 FoFJK:  IHMeth= 8 ICntrl=    3107 DoSepK=F KAlg= 0 I1Cent=           0 FoldK=F
 IRaf=         0 NMat=       1 IRICut=       1 DoRegI=T DoRafI=F ISym2E= 0 IDoP0=3 IntGTp=3.
 FoFCou: FMM=F IPFlag=           0 FMFlag=      100000 FMFlg1=           0
         NFxFlg=           0 DoJE=F BraDBF=F KetDBF=F FulRan=T
         wScrn=  0.000000 ICntrl=      3107 IOpCl=  0 I1Cent=           0 NGrid=           0
         NMat0=    1 NMatS0=      1 NMatT0=    0 NMatD0=    1 NMtDS0=    0 NMtDT0=    0
 Symmetry not used in FoFCou.
 End of G2Drv F.D. properties file   721 does not exist.
 End of G2Drv F.D. properties file   722 does not exist.
 End of G2Drv F.D. properties file   788 does not exist.
 Leave Link 1110 at Mon Sep  5 10:41:12 2022, MaxMem=   262144000 cpu:               0.0 elap:               0.0
 (Enter /binaries/g16/l1002.exe)
 Minotr:  Closed shell wavefunction.
          IDoAtm=1111
          Direct CPHF calculation.
          Differentiating once with respect to nuclear coordinates.
          Electric field/nuclear overlap derivatives assumed to be zero.
          Requested convergence is 1.0D-08 RMS, and 1.0D-07 maximum.
          NewPWx=T KeepS1=F KeepF1=F KeepIn=T MapXYZ=F SortEE=F KeepMc=T.
 Keep J ints in memory in canonical form, NReq=859842.
 FoFCou: FMM=F IPFlag=           0 FMFlag=           0 FMFlg1=           0
         NFxFlg=           0 DoJE=F BraDBF=F KetDBF=F FulRan=T
         wScrn=  0.000000 ICntrl=       600 IOpCl=  2 I1Cent=           0 NGrid=           0
         NMat0=    1 NMatS0=     13 NMatT0=    0 NMatD0=    1 NMtDS0=    0 NMtDT0=    0
 Symmetry not used in FoFCou.
 Two-electron integral symmetry not used.
          MDV=     262144000 using IRadAn=       1.
          Solving linear equations separately, MaxMat=       0.
          There are    15 degrees of freedom in the 1st order CPHF.  IDoFFX=5 NUNeed=    15.
 LinEq1:  Iter=  0 NonCon=    12 RMS=8.68D-02 Max=3.01D-01 NDo=    12
 AX will form    15 AO Fock derivatives at one time.
 LinEq1:  Iter=  1 NonCon=    12 RMS=4.19D-03 Max=1.03D-02 NDo=    15
 LinEq1:  Iter=  2 NonCon=     8 RMS=2.06D-04 Max=3.76D-04 NDo=    15
 LinEq1:  Iter=  3 NonCon=     6 RMS=6.36D-06 Max=1.46D-05 NDo=     8
 LinEq1:  Iter=  4 NonCon=     6 RMS=3.79D-07 Max=8.07D-07 NDo=     6
 LinEq1:  Iter=  5 NonCon=     0 RMS=3.74D-10 Max=9.23D-10 NDo=     6
 Linear equations converged to 1.000D-08 1.000D-07 after     5 iterations.
 End of Minotr F.D. properties file   721 does not exist.
 End of Minotr F.D. properties file   722 does not exist.
 End of Minotr F.D. properties file   788 does not exist.
 Leave Link 1002 at Mon Sep  5 10:41:12 2022, MaxMem=   262144000 cpu:               0.0 elap:               0.0
 (Enter /binaries/g16/l601.exe)
 Copying SCF densities to generalized density rwf, IOpCl= 0 IROHF=0.

 **********************************************************************

            Population analysis using the SCF Density.

 **********************************************************************

 Orbital symmetries:
       Occupied  (A) (A) (A) (A)
       Virtual   (A) (A) (A)
 The electronic state is 1-A.
 Alpha  occ. eigenvalues --   -1.17278  -0.58853  -0.58850  -0.34980
 Alpha virt. eigenvalues --    0.14756   0.26185   0.26187
          Condensed to atoms (all electrons):
               1          2          3          4
     1  N    5.595525   0.000000   0.000000   0.000000
     2  H    0.000000   0.801472   0.000000   0.000000
     3  H    0.000000   0.000000   0.801509   0.000000
     4  H    0.000000   0.000000   0.000000   0.801493
 Mulliken charges:
               1
     1  N   -0.595525
     2  H    0.198528
     3  H    0.198491
     4  H    0.198507
 Sum of Mulliken charges =  -0.00000
 Mulliken charges with hydrogens summed into heavy atoms:
               1
     1  N   -0.000000
 APT charges:
               1
     1  N   -0.595525
     2  H    0.198528
     3  H    0.198491
     4  H    0.198507
 Sum of APT charges =  -0.00000
 APT charges with hydrogens summed into heavy atoms:
               1
     1  N   -0.000000
 Charge=             -0.0000 electrons
 Dipole moment (field-independent basis, Debye):
    X=             -0.0000    Y=             -0.0000    Z=              0.0000  Tot=              0.0001
 N-N= 1.594742998131D+01 E-N=-1.145083948558D+01  KE=-1.505311661883D+01
  Exact polarizability:       0.000       0.000       0.000       0.000       0.000       0.000
 Approx polarizability:       3.541      -0.000       3.541      -0.000      -0.000       0.938
 Leave Link  601 at Mon Sep  5 10:41:12 2022, MaxMem=   262144000 cpu:               0.0 elap:               0.0
 (Enter /binaries/g16/l701.exe)
 ... and contract with generalized density number  0.
 Compute integral second derivatives.
 Leave Link  701 at Mon Sep  5 10:41:12 2022, MaxMem=   262144000 cpu:               0.0 elap:               0.0
 (Enter /binaries/g16/l702.exe)
 L702 exits ... SP integral derivatives will be done elsewhere.
 Leave Link  702 at Mon Sep  5 10:41:12 2022, MaxMem=   262144000 cpu:               0.0 elap:               0.0
 (Enter /binaries/g16/l703.exe)
 Integral derivatives from FoFJK, PRISM(SPDF).
 Compute integral second derivatives, UseDBF=F ICtDFT=           0.
 Calling FoFJK, ICntrl=    100127 FMM=F ISym2X=0 I1Cent= 0 IOpClX= 0 NMat=1 NMatS=1 NMatT=0.
 FoFJK:  IHMeth= 8 ICntrl=  100127 DoSepK=F KAlg= 0 I1Cent=           0 FoldK=F
 IRaf=         0 NMat=       1 IRICut=       1 DoRegI=T DoRafI=F ISym2E= 0 IDoP0=3 IntGTp=3.
 FoFCou: FMM=F IPFlag=           0 FMFlag=      100000 FMFlg1=         800
         NFxFlg=           0 DoJE=F BraDBF=F KetDBF=F FulRan=T
         wScrn=  0.000000 ICntrl=    100127 IOpCl=  0 I1Cent=           0 NGrid=           0
         NMat0=    1 NMatS0=      1 NMatT0=    0 NMatD0=    1 NMtDS0=    0 NMtDT0=    0
 Symmetry not used in FoFCou.
 Leave Link  703 at Mon Sep  5 10:41:12 2022, MaxMem=   262144000 cpu:               0.0 elap:               0.0
 (Enter /binaries/g16/l716.exe)
 Dipole        =-1.35043108D-05-1.05035184D-05 1.33513579D-05
 Polarizability= 0.00000000D+00 0.00000000D+00 0.00000000D+00
                 0.00000000D+00 0.00000000D+00 0.00000000D+00
 ***** Axes restored to original set *****
 -------------------------------------------------------------------
 Center     Atomic                   Forces (Hartrees/Bohr)
 Number     Number              X              Y              Z
 -------------------------------------------------------------------
      1        7          -0.000023838   -0.000009857    0.000011490
      2        1          -0.013749081   -0.005963836   -0.000252266
      3        1           0.007453011    0.002203112   -0.012818562
      4        1           0.006319909    0.003770581    0.013059339
 -------------------------------------------------------------------
 Cartesian Forces:  Max     0.013749081 RMS     0.007494945
 Force constants in Cartesian coordinates: 
                1             2             3             4             5 
      1  0.595743D+00
      2  0.276890D+00  0.749700D-01
      3 -0.219874D-01  0.509222D-01  0.711303D+00
      4 -0.333985D+00 -0.151593D+00 -0.214713D-02  0.371814D+00
      5 -0.151594D+00 -0.499277D-01 -0.832439D-02  0.161062D+00  0.701032D-01
      6 -0.214881D-02 -0.832510D-02 -0.767601D-01  0.348617D-02  0.717959D-02
      7 -0.142124D+00 -0.573566D-01  0.139754D+00 -0.205757D-01 -0.290373D-02
      8 -0.573563D-01 -0.582080D-02  0.342613D-01 -0.500810D-02 -0.909724D-02
      9  0.139751D+00  0.342611D-01 -0.312727D+00  0.493483D-02  0.304830D-02
     10 -0.119634D+00 -0.679402D-01 -0.115619D+00 -0.172533D-01 -0.656401D-02
     11 -0.679395D-01 -0.192216D-01 -0.768591D-01 -0.446072D-02 -0.110783D-01
     12 -0.115615D+00 -0.768582D-01 -0.321816D+00 -0.627387D-02 -0.190350D-02
                6             7             8             9            10 
      6  0.712524D-01
      7  0.313984D-01  0.151646D+00
      8  0.144892D-01  0.529282D-01  0.194780D-01
      9  0.342406D-02 -0.159346D+00 -0.416857D-01  0.342047D+00
     10 -0.327358D-01  0.110539D-01  0.943620D-02  0.146597D-01  0.125834D+00
     11 -0.133437D-01  0.733213D-02 -0.456000D-02  0.437634D-02  0.650680D-01
     12  0.208367D-02 -0.118064D-01 -0.706481D-02 -0.327439D-01  0.133695D+00
               11            12 
     11  0.348599D-01
     12  0.858265D-01  0.352476D+00
 FormGI is forming the generalized inverse of G from B-inverse, IUseBI=4.
 Force constants in internal coordinates: 
                1             2             3             4             5 
      1  0.441735D+00
      2  0.158215D-01  0.441717D+00
      3  0.158194D-01  0.158243D-01  0.441724D+00
      4  0.943832D-02  0.943700D-02 -0.188761D-01  0.745489D-01
      5  0.943513D-02 -0.188782D-01  0.943438D-02 -0.372681D-01  0.745434D-01
      6 -0.188735D-01  0.944116D-02  0.944174D-02 -0.372807D-01 -0.372753D-01
      7  0.000000D+00  0.000000D+00  0.000000D+00  0.000000D+00  0.000000D+00
                6             7 
      6  0.745560D-01
      7  0.000000D+00 -0.213374D-01
 Leave Link  716 at Mon Sep  5 10:41:12 2022, MaxMem=   262144000 cpu:               0.0 elap:               0.0
 (Enter /binaries/g16/l103.exe)

 GradGradGradGradGradGradGradGradGradGradGradGradGradGradGradGradGradGrad
 Berny optimization.
 Red2BG is reusing G-inverse.
 Internal  Forces:  Max     0.014990548 RMS     0.009813182
 Search for a saddle point.
 Step number   1 out of a maximum of   20
 All quantities printed in internal units (Hartrees-Bohrs-Radians)
 Swapping is turned off.
 Second derivative matrix not updated -- analytic derivatives used.
 The second derivative matrix:
                          R1        R2        R3        A1        A2
           R1           0.44173
           R2           0.01582   0.44172
           R3           0.01582   0.01582   0.44172
           A1           0.00944   0.00944  -0.01888   0.07455
           A2           0.00944  -0.01888   0.00943  -0.03727   0.07454
           A3          -0.01887   0.00944   0.00944  -0.03728  -0.03728
           D1          -0.00000  -0.00000  -0.00000  -0.00000   0.00000
                          A3        D1
           A3           0.07456
           D1           0.00000  -0.02134
 ITU=  0
     Eigenvalues ---   -0.02134   0.10928   0.10930   0.42843   0.42844
     Eigenvalues ---    0.47337
 Eigenvectors required to have negative eigenvalues:
                          D1        A2        A3        A1        R3
   1                    1.00000  -0.00001  -0.00001  -0.00000   0.00000
                          R1        R2
   1                    0.00000   0.00000
 RFO step:  Lambda0=4.128383399D-12 Lambda=-1.41977266D-03.
 Linear search not attempted -- option 19 set.
 Iteration  1 RMS(Cart)=  0.02066863 RMS(Int)=  0.00000130
 Iteration  2 RMS(Cart)=  0.00000109 RMS(Int)=  0.00000000
 Iteration  3 RMS(Cart)=  0.00000000 RMS(Int)=  0.00000000
 ITry= 1 IFail=0 DXMaxC= 2.90D-02 DCOld= 1.00D+10 DXMaxT= 3.00D-01 DXLimC= 3.00D+00 Rises=F
 Variable       Old X    -DE/DX   Delta X   Delta X   Delta X     New X
                                 (Linear)    (Quad)   (Total)
    R1        1.87599  -0.01499   0.00000  -0.03156  -0.03156   1.84443
    R2        1.87601  -0.01499   0.00000  -0.03158  -0.03158   1.84443
    R3        1.87600  -0.01499   0.00000  -0.03157  -0.03157   1.84443
    A1        2.09441  -0.00000   0.00000  -0.00001  -0.00001   2.09440
    A2        2.09453  -0.00001   0.00000  -0.00014  -0.00014   2.09439
    A3        2.09425   0.00002   0.00000   0.00015   0.00015   2.09440
    D1       -3.14158   0.00000   0.00000  -0.00001  -0.00001  -3.14159
         Item               Value     Threshold  Converged?
 Maximum Force            0.014991     0.000450     NO 
 RMS     Force            0.009813     0.000300     NO 
 Maximum Displacement     0.029006     0.001800     NO 
 RMS     Displacement     0.020669     0.001200     NO 
 Predicted change in Energy=-7.120091D-04
 Lowest energy point so far.  Saving SCF results.
 GradGradGradGradGradGradGradGradGradGradGradGradGradGradGradGradGradGrad

 Leave Link  103 at Mon Sep  5 10:41:12 2022, MaxMem=   262144000 cpu:               0.0 elap:               0.0
 (Enter /binaries/g16/l202.exe)
                          Input orientation:                          
 ---------------------------------------------------------------------
 Center     Atomic      Atomic             Coordinates (Angstroms)
 Number     Number       Type             X           Y           Z
 ---------------------------------------------------------------------
      1          7           0        1.087607   -0.339956   -0.009710
      2          1           0        1.982919    0.048368    0.006215
      3          1           0        0.602850   -0.483143    0.825238
      4          1           0        0.677054   -0.585089   -0.860584
 ---------------------------------------------------------------------
                    Distance matrix (angstroms):
                    1          2          3          4
     1  N    0.000000
     2  H    0.976029   0.000000
     3  H    0.976028   1.690531   0.000000
     4  H    0.976028   1.690530   1.690531   0.000000
 Stoichiometry    H3N
 Framework group  C1[X(H3N)]
 Deg. of freedom     6
 Full point group                 C1      NOp   1
 RotChk:  IX=0 Diff= 1.96D+00
 Largest Abelian subgroup         C1      NOp   1
 Largest concise Abelian subgroup C1      NOp   1
                         Standard orientation:                         
 ---------------------------------------------------------------------
 Center     Atomic      Atomic             Coordinates (Angstroms)
 Number     Number       Type             X           Y           Z
 ---------------------------------------------------------------------
      1          7           0       -0.000000    0.000000   -0.000000
      2          1           0        0.253057   -0.942653    0.000000
      3          1           0       -0.942889    0.252173    0.000000
      4          1           0        0.689833    0.690479    0.000000
 ---------------------------------------------------------------------
 Rotational constants (GHZ):         350.9264303         350.9262386         175.4631672
 Leave Link  202 at Mon Sep  5 10:41:12 2022, MaxMem=   262144000 cpu:               0.0 elap:               0.0
 (Enter /binaries/g16/l301.exe)
 Standard basis: VSTO-6G (5D, 7F)
 Ernie: Thresh=  0.10000D-02 Tol=  0.10000D-05 Strict=F.
  NNHCO=     0 NNPyr=     0 NCTC=     0               EPep=         0.000000000
    EC=         6.207521152  ECS=         0.635751151   EG=         0.060547306
   EHC=         0.000000000  EAt=        -8.694780649  AtH=         0.429166429
 EPDDG=         0.000000000  ECC=         6.903819610 EAtT=         9.123947077
 There are     7 symmetry adapted cartesian basis functions of A   symmetry.
 There are     7 symmetry adapted basis functions of A   symmetry.
     7 basis functions,    42 primitive gaussians,     7 cartesian basis functions
     4 alpha electrons        4 beta electrons
       nuclear repulsion energy        16.0277666870 Hartrees.
 IExCor=    0 DFT=F Ex=HF Corr=None ExCW=0 ScaHFX=  1.000000
 ScaDFX=  1.000000  1.000000  1.000000  1.000000 ScalE2=  1.000000  1.000000
 IRadAn=      5 IRanWt=     -1 IRanGd=            0 ICorTp=0 IEmpDi=  4
 Integral buffers will be    131072 words long.
 Regular integral format.
 Two-electron integral symmetry is turned off.
 Leave Link  301 at Mon Sep  5 10:41:12 2022, MaxMem=   262144000 cpu:               0.0 elap:               0.0
 (Enter /binaries/g16/l302.exe)
 Do NDO integrals.
 NPDir=0 NMtPBC=     1 NCelOv=     1 NCel=       1 NClECP=     1 NCelD=      1
         NCelK=      1 NCelE2=     1 NClLst=     1 CellRange=     0.0.
 One-electron integrals computed using PRISM.
 NBasis=     7 RedAO= F EigKep=  0.00D+00  NBF=     7
 NBsUse=     7 1.00D-04 EigRej=  0.00D+00 NBFU=     7
 Leave Link  302 at Mon Sep  5 10:41:12 2022, MaxMem=   262144000 cpu:               0.0 elap:               0.0
 (Enter /binaries/g16/l303.exe)
 DipDrv:  MaxL=1.
 Leave Link  303 at Mon Sep  5 10:41:12 2022, MaxMem=   262144000 cpu:               0.0 elap:               0.0
 (Enter /binaries/g16/l401.exe)
 Initial guess from the checkpoint file:  "in.chk"
 B after Tr=    -0.000000    0.000000   -0.000000
         Rot=    0.720482   -0.000000   -0.000000    0.693473 Ang=  87.81 deg.
 Guess basis will be translated and rotated to current coordinates.
 JPrj=0 DoOrth=T DoCkMO=T.
 Leave Link  401 at Mon Sep  5 10:41:13 2022, MaxMem=   262144000 cpu:               0.1 elap:               0.0
 (Enter /binaries/g16/l502.exe)
 Keep J ints in memory in canonical form, NReq=859273.
 FoFCou: FMM=F IPFlag=           0 FMFlag=           0 FMFlg1=           0
         NFxFlg=           0 DoJE=F BraDBF=F KetDBF=F FulRan=T
         wScrn=  0.000000 ICntrl=       600 IOpCl=  2 I1Cent=           0 NGrid=           0
         NMat0=    1 NMatS0=     13 NMatT0=    0 NMatD0=    1 NMtDS0=    0 NMtDT0=    0
 Symmetry not used in FoFCou.
 Two-electron integral symmetry not used.
 Closed shell SCF:
 Using DIIS extrapolation, IDIIS=  1040.
 Overlap will be assumed to be unity.
 NGot=   262144000 LenX=   262083560 LenY=   262082678
 Requested convergence on RMS density matrix=1.00D-08 within 128 cycles.
 Requested convergence on MAX density matrix=1.00D-06.
 Requested convergence on             energy=1.00D-06.
 No special actions if energy rises.

 Cycle   1  Pass 1  IDiag  1:
 E=-0.477588838106158E-02
 DIIS: error= 1.76D-03 at cycle   1 NSaved=   1.
 NSaved= 1 IEnMin= 1 EnMin=-0.477588838106158E-02 IErMin= 1 ErrMin= 1.76D-03
 ErrMax= 1.76D-03  0.00D+00 EMaxC= 1.00D-01 BMatC= 3.80D-05 BMatP= 3.80D-05
 IDIUse=3 WtCom= 9.82D-01 WtEn= 1.76D-02
 Coeff-Com:  0.100D+01
 Coeff-En:   0.100D+01
 Coeff:      0.100D+01
 GapD=    2.000 DampG=2.000 DampE=1.000 DampFc=2.0000 IDamp=-1.
 RMSDP=9.42D-04 MaxDP=4.12D-03              OVMax= 0.00D+00

 Cycle   2  Pass 1  IDiag  3:
 E=-0.484667450893284E-02 Delta-E=       -0.000070786128 Rises=F Damp=F
 DIIS: error= 4.13D-04 at cycle   2 NSaved=   2.
 NSaved= 2 IEnMin= 2 EnMin=-0.484667450893284E-02 IErMin= 2 ErrMin= 4.13D-04
 ErrMax= 4.13D-04  0.00D+00 EMaxC= 1.00D-01 BMatC= 2.09D-06 BMatP= 3.80D-05
 IDIUse=3 WtCom= 9.96D-01 WtEn= 4.13D-03
 Coeff-Com: -0.306D+00 0.131D+01
 Coeff-En:   0.000D+00 0.100D+01
 Coeff:     -0.305D+00 0.130D+01
 Gap=     0.505 Goal=   None    Shift=    0.000
 RMSDP=2.88D-04 MaxDP=1.26D-03 DE=-7.08D-05 OVMax= 1.39D-03

 Cycle   3  Pass 1  IDiag  3:
 E=-0.485078778968173E-02 Delta-E=       -0.000004113281 Rises=F Damp=F
 DIIS: error= 1.67D-06 at cycle   3 NSaved=   3.
 NSaved= 3 IEnMin= 3 EnMin=-0.485078778968173E-02 IErMin= 3 ErrMin= 1.67D-06
 ErrMax= 1.67D-06  0.00D+00 EMaxC= 1.00D-01 BMatC= 4.37D-11 BMatP= 2.09D-06
 IDIUse=1 WtCom= 1.00D+00 WtEn= 0.00D+00
 Coeff-Com:  0.288D-01-0.124D+00 0.109D+01
 Coeff:      0.288D-01-0.124D+00 0.109D+01
 Gap=     0.505 Goal=   None    Shift=    0.000
 RMSDP=1.70D-06 MaxDP=4.55D-06 DE=-4.11D-06 OVMax= 5.29D-06

 Cycle   4  Pass 1  IDiag  3:
 E=-0.485078794208960E-02 Delta-E=       -0.000000000152 Rises=F Damp=F
 DIIS: error= 6.56D-07 at cycle   4 NSaved=   4.
 NSaved= 4 IEnMin= 4 EnMin=-0.485078794208960E-02 IErMin= 4 ErrMin= 6.56D-07
 ErrMax= 6.56D-07  0.00D+00 EMaxC= 1.00D-01 BMatC= 6.61D-12 BMatP= 4.37D-11
 IDIUse=1 WtCom= 1.00D+00 WtEn= 0.00D+00
 Coeff-Com: -0.162D-01 0.696D-01-0.668D+00 0.161D+01
 Coeff:     -0.162D-01 0.696D-01-0.668D+00 0.161D+01
 Gap=     0.505 Goal=   None    Shift=    0.000
 RMSDP=1.10D-06 MaxDP=3.09D-06 DE=-1.52D-10 OVMax= 3.80D-06

 Cycle   5  Pass 1  IDiag  3:
 E=-0.485078797153804E-02 Delta-E=       -0.000000000029 Rises=F Damp=F
 DIIS: error= 5.86D-08 at cycle   5 NSaved=   5.
 NSaved= 5 IEnMin= 5 EnMin=-0.485078797153804E-02 IErMin= 5 ErrMin= 5.86D-08
 ErrMax= 5.86D-08  0.00D+00 EMaxC= 1.00D-01 BMatC= 6.19D-14 BMatP= 6.61D-12
 IDIUse=1 WtCom= 1.00D+00 WtEn= 0.00D+00
 Coeff-Com:  0.388D-02-0.167D-01 0.253D+00-0.662D+00 0.142D+01
 Coeff:      0.388D-02-0.167D-01 0.253D+00-0.662D+00 0.142D+01
 Gap=     0.505 Goal=   None    Shift=    0.000
 RMSDP=1.02D-07 MaxDP=2.90D-07 DE=-2.94D-11 OVMax= 3.05D-07

 Cycle   6  Pass 1  IDiag  3:
 E=-0.485078797175831E-02 Delta-E=       -0.000000000000 Rises=F Damp=F
 DIIS: error= 8.97D-09 at cycle   6 NSaved=   6.
 NSaved= 6 IEnMin= 6 EnMin=-0.485078797175831E-02 IErMin= 6 ErrMin= 8.97D-09
 ErrMax= 8.97D-09  0.00D+00 EMaxC= 1.00D-01 BMatC= 1.43D-15 BMatP= 6.19D-14
 IDIUse=1 WtCom= 1.00D+00 WtEn= 0.00D+00
 Coeff-Com: -0.269D-02 0.116D-01-0.186D+00 0.489D+00-0.109D+01 0.178D+01
 Coeff:     -0.269D-02 0.116D-01-0.186D+00 0.489D+00-0.109D+01 0.178D+01
 Gap=     0.505 Goal=   None    Shift=    0.000
 RMSDP=2.58D-08 MaxDP=6.53D-08 DE=-2.20D-13 OVMax= 1.22D-07

 Cycle   7  Pass 1  IDiag  3:
 E=-0.485078797177607E-02 Delta-E=       -0.000000000000 Rises=F Damp=F
 DIIS: error= 1.62D-09 at cycle   7 NSaved=   7.
 NSaved= 7 IEnMin= 7 EnMin=-0.485078797177607E-02 IErMin= 7 ErrMin= 1.62D-09
 ErrMax= 1.62D-09  0.00D+00 EMaxC= 1.00D-01 BMatC= 5.48D-17 BMatP= 1.43D-15
 IDIUse=1 WtCom= 1.00D+00 WtEn= 0.00D+00
 Coeff-Com:  0.211D-02-0.909D-02 0.147D+00-0.386D+00 0.869D+00-0.150D+01
 Coeff-Com:  0.188D+01
 Coeff:      0.211D-02-0.909D-02 0.147D+00-0.386D+00 0.869D+00-0.150D+01
 Coeff:      0.188D+01
 Gap=     0.505 Goal=   None    Shift=    0.000
 RMSDP=5.61D-09 MaxDP=1.42D-08 DE=-1.78D-14 OVMax= 2.66D-08

 Cycle   8  Pass 2  IDiag  1:
 SCF Done:  E(RAM1) = -0.485078797178E-02 A.U. after    8 cycles
            NFock=  7  Conv=0.56D-08     -V/T= 0.9997
 KE=-1.506677365361D+01 PE=-1.154845594121D+01 EE= 1.058261211982D+01
 Leave Link  502 at Mon Sep  5 10:41:13 2022, MaxMem=   262144000 cpu:               0.0 elap:               0.0
 (Enter /binaries/g16/l701.exe)
 ... and contract with generalized density number  0.
 Compute integral first derivatives.
 Leave Link  701 at Mon Sep  5 10:41:13 2022, MaxMem=   262144000 cpu:               0.0 elap:               0.0
 (Enter /binaries/g16/l702.exe)
 L702 exits ... SP integral derivatives will be done elsewhere.
 Leave Link  702 at Mon Sep  5 10:41:13 2022, MaxMem=   262144000 cpu:               0.0 elap:               0.0
 (Enter /binaries/g16/l703.exe)
 Integral derivatives from FoFJK, PRISM(SPDF).
 Compute integral first derivatives, UseDBF=F ICtDFT=           0.
 Calling FoFJK, ICntrl=      2127 FMM=F ISym2X=0 I1Cent= 0 IOpClX= 0 NMat=1 NMatS=1 NMatT=0.
 FoFJK:  IHMeth= 8 ICntrl=    2127 DoSepK=F KAlg= 0 I1Cent=           0 FoldK=F
 IRaf=         0 NMat=       1 IRICut=       1 DoRegI=T DoRafI=F ISym2E= 0 IDoP0=3 IntGTp=3.
 FoFCou: FMM=F IPFlag=           0 FMFlag=      100000 FMFlg1=         800
         NFxFlg=           0 DoJE=F BraDBF=F KetDBF=F FulRan=T
         wScrn=  0.000000 ICntrl=      2127 IOpCl=  0 I1Cent=           0 NGrid=           0
         NMat0=    1 NMatS0=      1 NMatT0=    0 NMatD0=    1 NMtDS0=    0 NMtDT0=    0
 Symmetry not used in FoFCou.
 Leave Link  703 at Mon Sep  5 10:41:13 2022, MaxMem=   262144000 cpu:               0.0 elap:               0.0
 (Enter /binaries/g16/l716.exe)
 Dipole        = 1.66102746D-07-2.10154442D-07 1.86824235D-06
 ***** Axes restored to original set *****
 -------------------------------------------------------------------
 Center     Atomic                   Forces (Hartrees/Bohr)
 Number     Number              X              Y              Z
 -------------------------------------------------------------------
      1        7           0.000000465    0.000000099   -0.000000182
      2        1           0.000524443    0.000227499    0.000009368
      3        1          -0.000284218   -0.000083933    0.000489423
      4        1          -0.000240690   -0.000143665   -0.000498609
 -------------------------------------------------------------------
 Cartesian Forces:  Max     0.000524443 RMS     0.000285982
 Leave Link  716 at Mon Sep  5 10:41:13 2022, MaxMem=   262144000 cpu:               0.0 elap:               0.0
 (Enter /binaries/g16/l103.exe)

 GradGradGradGradGradGradGradGradGradGradGradGradGradGradGradGradGradGrad
 Berny optimization.
 FormGI is forming the generalized inverse of G from B-inverse, IUseBI=4.
 Internal  Forces:  Max     0.000572153 RMS     0.000374438
 Search for a saddle point.
 Step number   2 out of a maximum of   20
 All quantities printed in internal units (Hartrees-Bohrs-Radians)
 Swapping is turned off.
 Update second derivatives using D2CorX and points    1    2
 The second derivative matrix:
                          R1        R2        R3        A1        A2
           R1           0.44824
           R2           0.02233   0.44823
           R3           0.02233   0.02234   0.44824
           A1           0.00944   0.00944  -0.01888   0.07455
           A2           0.00944  -0.01888   0.00944  -0.03727   0.07454
           A3          -0.01888   0.00944   0.00944  -0.03728  -0.03728
           D1          -0.00000  -0.00000  -0.00000  -0.00000   0.00000
                          A3        D1
           A3           0.07456
           D1           0.00000  -0.02134
 ITU=  0  0
     Eigenvalues ---   -0.02134   0.10928   0.10930   0.42843   0.42844
     Eigenvalues ---    0.49290
 Eigenvectors required to have negative eigenvalues:
                          D1        A2        A3        A1        R3
   1                    1.00000  -0.00000  -0.00000   0.00000   0.00000
                          R1        R2
   1                    0.00000   0.00000
 RFO step:  Lambda0=8.348703673D-14 Lambda=-1.99110745D-06.
 Linear search not attempted -- option 19 set.
 Iteration  1 RMS(Cart)=  0.00075965 RMS(Int)=  0.00000000
 Iteration  2 RMS(Cart)=  0.00000000 RMS(Int)=  0.00000000
 ITry= 1 IFail=0 DXMaxC= 1.06D-03 DCOld= 1.00D+10 DXMaxT= 3.00D-01 DXLimC= 3.00D+00 Rises=F
 Variable       Old X    -DE/DX   Delta X   Delta X   Delta X     New X
                                 (Linear)    (Quad)   (Total)
    R1        1.84443   0.00057   0.00000   0.00116   0.00116   1.84559
    R2        1.84443   0.00057   0.00000   0.00116   0.00116   1.84559
    R3        1.84443   0.00057   0.00000   0.00116   0.00116   1.84559
    A1        2.09440   0.00000   0.00000   0.00000   0.00000   2.09440
    A2        2.09439   0.00000   0.00000   0.00000   0.00000   2.09440
    A3        2.09440  -0.00000   0.00000  -0.00000  -0.00000   2.09440
    D1       -3.14159   0.00000   0.00000  -0.00000  -0.00000  -3.14159
         Item               Value     Threshold  Converged?
 Maximum Force            0.000572     0.000450     NO 
 RMS     Force            0.000374     0.000300     NO 
 Maximum Displacement     0.001065     0.001800     YES
 RMS     Displacement     0.000760     0.001200     YES
 Predicted change in Energy=-9.955537D-07
 Lowest energy point so far.  Saving SCF results.
 GradGradGradGradGradGradGradGradGradGradGradGradGradGradGradGradGradGrad

 Leave Link  103 at Mon Sep  5 10:41:13 2022, MaxMem=   262144000 cpu:               0.0 elap:               0.0
 (Enter /binaries/g16/l202.exe)
                          Input orientation:                          
 ---------------------------------------------------------------------
 Center     Atomic      Atomic             Coordinates (Angstroms)
 Number     Number       Type             X           Y           Z
 ---------------------------------------------------------------------
      1          7           0        1.087608   -0.339955   -0.009710
      2          1           0        1.983482    0.048612    0.006225
      3          1           0        0.602545   -0.483234    0.825763
      4          1           0        0.676795   -0.585243   -0.861119
 ---------------------------------------------------------------------
                    Distance matrix (angstroms):
                    1          2          3          4
     1  N    0.000000
     2  H    0.976642   0.000000
     3  H    0.976642   1.691594   0.000000
     4  H    0.976642   1.691594   1.691594   0.000000
 This structure is nearly, but not quite of a higher symmetry.
 Consider Symm=Loose if the higher symmetry is desired.
 Stoichiometry    H3N
 Framework group  C1[X(H3N)]
 Deg. of freedom     6
 Full point group                 C1      NOp   1
 RotChk:  IX=1 Diff= 1.95D+00
 Largest Abelian subgroup         C1      NOp   1
 Largest concise Abelian subgroup C1      NOp   1
                         Standard orientation:                         
 ---------------------------------------------------------------------
 Center     Atomic      Atomic             Coordinates (Angstroms)
 Number     Number       Type             X           Y           Z
 ---------------------------------------------------------------------
      1          7           0       -0.000000    0.000000    0.000000
      2          1           0        0.011762   -0.976441    0.015935
      3          1           0       -0.067608    0.501242    0.835473
      4          1           0        0.055846    0.475199   -0.851409
 ---------------------------------------------------------------------
 Rotational constants (GHZ):         350.4851963         350.4851885         175.2425962
 Leave Link  202 at Mon Sep  5 10:41:13 2022, MaxMem=   262144000 cpu:               0.0 elap:               0.0
 (Enter /binaries/g16/l301.exe)
 Standard basis: VSTO-6G (5D, 7F)
 Ernie: Thresh=  0.10000D-02 Tol=  0.10000D-05 Strict=F.
  NNHCO=     0 NNPyr=     0 NCTC=     0               EPep=         0.000000000
    EC=         6.205660764  ECS=         0.634607303   EG=         0.060565916
   EHC=         0.000000000  EAt=        -8.694780649  AtH=         0.429166429
 EPDDG=         0.000000000  ECC=         6.900833983 EAtT=         9.123947077
 There are     7 symmetry adapted cartesian basis functions of A   symmetry.
 There are     7 symmetry adapted basis functions of A   symmetry.
     7 basis functions,    42 primitive gaussians,     7 cartesian basis functions
     4 alpha electrons        4 beta electrons
       nuclear repulsion energy        16.0247810602 Hartrees.
 IExCor=    0 DFT=F Ex=HF Corr=None ExCW=0 ScaHFX=  1.000000
 ScaDFX=  1.000000  1.000000  1.000000  1.000000 ScalE2=  1.000000  1.000000
 IRadAn=      5 IRanWt=     -1 IRanGd=            0 ICorTp=0 IEmpDi=  4
 Integral buffers will be    131072 words long.
 Regular integral format.
 Two-electron integral symmetry is turned off.
 Leave Link  301 at Mon Sep  5 10:41:13 2022, MaxMem=   262144000 cpu:               0.0 elap:               0.0
 (Enter /binaries/g16/l302.exe)
 Do NDO integrals.
 NPDir=0 NMtPBC=     1 NCelOv=     1 NCel=       1 NClECP=     1 NCelD=      1
         NCelK=      1 NCelE2=     1 NClLst=     1 CellRange=     0.0.
 One-electron integrals computed using PRISM.
 NBasis=     7 RedAO= F EigKep=  0.00D+00  NBF=     7
 NBsUse=     7 1.00D-04 EigRej=  0.00D+00 NBFU=     7
 Leave Link  302 at Mon Sep  5 10:41:13 2022, MaxMem=   262144000 cpu:               0.0 elap:               0.0
 (Enter /binaries/g16/l303.exe)
 DipDrv:  MaxL=1.
 Leave Link  303 at Mon Sep  5 10:41:13 2022, MaxMem=   262144000 cpu:               0.0 elap:               0.0
 (Enter /binaries/g16/l401.exe)
 Initial guess from the checkpoint file:  "in.chk"
 B after Tr=     0.000000    0.000000    0.000000
         Rot=    0.725948    0.099012   -0.673652    0.096900 Ang=  86.90 deg.
 Guess basis will be translated and rotated to current coordinates.
 JPrj=0 DoOrth=T DoCkMO=T.
 Leave Link  401 at Mon Sep  5 10:41:13 2022, MaxMem=   262144000 cpu:               0.0 elap:               0.0
 (Enter /binaries/g16/l502.exe)
 Keep J ints in memory in canonical form, NReq=859273.
 FoFCou: FMM=F IPFlag=           0 FMFlag=           0 FMFlg1=           0
         NFxFlg=           0 DoJE=F BraDBF=F KetDBF=F FulRan=T
         wScrn=  0.000000 ICntrl=       600 IOpCl=  2 I1Cent=           0 NGrid=           0
         NMat0=    1 NMatS0=     13 NMatT0=    0 NMatD0=    1 NMtDS0=    0 NMtDT0=    0
 Symmetry not used in FoFCou.
 Two-electron integral symmetry not used.
 Closed shell SCF:
 Using DIIS extrapolation, IDIIS=  1040.
 Overlap will be assumed to be unity.
 NGot=   262144000 LenX=   262083560 LenY=   262082678
 Requested convergence on RMS density matrix=1.00D-08 within 128 cycles.
 Requested convergence on MAX density matrix=1.00D-06.
 Requested convergence on             energy=1.00D-06.
 No special actions if energy rises.

 Cycle   1  Pass 1  IDiag  1:
 E=-0.485164421148454E-02
 DIIS: error= 6.47D-05 at cycle   1 NSaved=   1.
 NSaved= 1 IEnMin= 1 EnMin=-0.485164421148454E-02 IErMin= 1 ErrMin= 6.47D-05
 ErrMax= 6.47D-05  0.00D+00 EMaxC= 1.00D-01 BMatC= 5.10D-08 BMatP= 5.10D-08
 IDIUse=1 WtCom= 1.00D+00 WtEn= 0.00D+00
 Coeff-Com:  0.100D+01
 Coeff:      0.100D+01
 RMSDP=3.45D-05 MaxDP=1.51D-04              OVMax= 0.00D+00

 Cycle   2  Pass 1  IDiag  3:
 E=-0.485173910742986E-02 Delta-E=       -0.000000094896 Rises=F Damp=F
 DIIS: error= 1.51D-05 at cycle   2 NSaved=   2.
 NSaved= 2 IEnMin= 2 EnMin=-0.485173910742986E-02 IErMin= 2 ErrMin= 1.51D-05
 ErrMax= 1.51D-05  0.00D+00 EMaxC= 1.00D-01 BMatC= 2.79D-09 BMatP= 5.10D-08
 IDIUse=1 WtCom= 1.00D+00 WtEn= 0.00D+00
 Coeff-Com: -0.306D+00 0.131D+01
 Coeff:     -0.306D+00 0.131D+01
 Gap=     0.504 Goal=   None    Shift=    0.000
 RMSDP=1.05D-05 MaxDP=4.63D-05 DE=-9.49D-08 OVMax= 5.12D-05

 Cycle   3  Pass 1  IDiag  3:
 E=-0.485174461480042E-02 Delta-E=       -0.000000005507 Rises=F Damp=F
 DIIS: error= 2.45D-08 at cycle   3 NSaved=   3.
 NSaved= 3 IEnMin= 3 EnMin=-0.485174461480042E-02 IErMin= 3 ErrMin= 2.45D-08
 ErrMax= 2.45D-08  0.00D+00 EMaxC= 1.00D-01 BMatC= 1.50D-14 BMatP= 2.79D-09
 IDIUse=1 WtCom= 1.00D+00 WtEn= 0.00D+00
 Coeff-Com:  0.106D+00-0.454D+00 0.135D+01
 Coeff:      0.106D+00-0.454D+00 0.135D+01
 Gap=     0.504 Goal=   None    Shift=    0.000
 RMSDP=4.03D-08 MaxDP=8.52D-08 DE=-5.51D-09 OVMax= 1.59D-07

 Cycle   4  Pass 1  IDiag  3:
 E=-0.485174461486793E-02 Delta-E=       -0.000000000000 Rises=F Damp=F
 DIIS: error= 1.46D-08 at cycle   4 NSaved=   4.
 NSaved= 4 IEnMin= 4 EnMin=-0.485174461486793E-02 IErMin= 4 ErrMin= 1.46D-08
 ErrMax= 1.46D-08  0.00D+00 EMaxC= 1.00D-01 BMatC= 3.33D-15 BMatP= 1.50D-14
 IDIUse=1 WtCom= 1.00D+00 WtEn= 0.00D+00
 Coeff-Com: -0.102D+00 0.437D+00-0.122D+01 0.188D+01
 Coeff:     -0.102D+00 0.437D+00-0.122D+01 0.188D+01
 Gap=     0.504 Goal=   None    Shift=    0.000
 RMSDP=4.20D-08 MaxDP=1.09D-07 DE=-6.75D-14 OVMax= 2.03D-07

 Cycle   5  Pass 1  IDiag  3:
 E=-0.485174461487858E-02 Delta-E=       -0.000000000000 Rises=F Damp=F
 DIIS: error= 2.15D-09 at cycle   5 NSaved=   5.
 NSaved= 5 IEnMin= 5 EnMin=-0.485174461487858E-02 IErMin= 5 ErrMin= 2.15D-09
 ErrMax= 2.15D-09  0.00D+00 EMaxC= 1.00D-01 BMatC= 8.70D-17 BMatP= 3.33D-15
 IDIUse=1 WtCom= 1.00D+00 WtEn= 0.00D+00
 Coeff-Com:  0.385D-01-0.164D+00 0.489D+00-0.872D+00 0.151D+01
 Coeff:      0.385D-01-0.164D+00 0.489D+00-0.872D+00 0.151D+01
 Gap=     0.504 Goal=   None    Shift=    0.000
 RMSDP=7.08D-09 MaxDP=1.86D-08 DE=-1.07D-14 OVMax= 3.48D-08

 Cycle   6  Pass 2  IDiag  1:
 SCF Done:  E(RAM1) = -0.485174461488E-02 A.U. after    6 cycles
            NFock=  5  Conv=0.71D-08     -V/T= 0.9997
 KE=-1.506627945405D+01 PE=-1.154484979149D+01 EE= 1.058149644075D+01
 Leave Link  502 at Mon Sep  5 10:41:13 2022, MaxMem=   262144000 cpu:               0.0 elap:               0.0
 (Enter /binaries/g16/l701.exe)
 ... and contract with generalized density number  0.
 Compute integral first derivatives.
 Leave Link  701 at Mon Sep  5 10:41:13 2022, MaxMem=   262144000 cpu:               0.0 elap:               0.0
 (Enter /binaries/g16/l702.exe)
 L702 exits ... SP integral derivatives will be done elsewhere.
 Leave Link  702 at Mon Sep  5 10:41:13 2022, MaxMem=   262144000 cpu:               0.0 elap:               0.0
 (Enter /binaries/g16/l703.exe)
 Integral derivatives from FoFJK, PRISM(SPDF).
 Compute integral first derivatives, UseDBF=F ICtDFT=           0.
 Calling FoFJK, ICntrl=      2127 FMM=F ISym2X=0 I1Cent= 0 IOpClX= 0 NMat=1 NMatS=1 NMatT=0.
 FoFJK:  IHMeth= 8 ICntrl=    2127 DoSepK=F KAlg= 0 I1Cent=           0 FoldK=F
 IRaf=         0 NMat=       1 IRICut=       1 DoRegI=T DoRafI=F ISym2E= 0 IDoP0=3 IntGTp=3.
 FoFCou: FMM=F IPFlag=           0 FMFlag=      100000 FMFlg1=         800
         NFxFlg=           0 DoJE=F BraDBF=F KetDBF=F FulRan=T
         wScrn=  0.000000 ICntrl=      2127 IOpCl=  0 I1Cent=           0 NGrid=           0
         NMat0=    1 NMatS0=      1 NMatT0=    0 NMatD0=    1 NMtDS0=    0 NMtDT0=    0
 Symmetry not used in FoFCou.
 Leave Link  703 at Mon Sep  5 10:41:13 2022, MaxMem=   262144000 cpu:               0.0 elap:               0.0
 (Enter /binaries/g16/l716.exe)
 Dipole        = 2.58738763D-07 1.00299984D-08 1.98185248D-08
 ***** Axes restored to original set *****
 -------------------------------------------------------------------
 Center     Atomic                   Forces (Hartrees/Bohr)
 Number     Number              X              Y              Z
 -------------------------------------------------------------------
      1        7          -0.000000015   -0.000000019    0.000000006
      2        1          -0.000020232   -0.000008771   -0.000000360
      3        1           0.000010964    0.000003243   -0.000018888
      4        1           0.000009283    0.000005547    0.000019241
 -------------------------------------------------------------------
 Cartesian Forces:  Max     0.000020232 RMS     0.000011034
 Leave Link  716 at Mon Sep  5 10:41:13 2022, MaxMem=   262144000 cpu:               0.0 elap:               0.0
 (Enter /binaries/g16/l103.exe)

 GradGradGradGradGradGradGradGradGradGradGradGradGradGradGradGradGradGrad
 Berny optimization.
 FormGI is forming the generalized inverse of G from B-inverse, IUseBI=4.
 Internal  Forces:  Max     0.000022079 RMS     0.000014447
 Search for a saddle point.
 Step number   3 out of a maximum of   20
 All quantities printed in internal units (Hartrees-Bohrs-Radians)
 Swapping is turned off.
 Update second derivatives using D2CorX and points    1    2    3
 The second derivative matrix:
                          R1        R2        R3        A1        A2
           R1           0.45457
           R2           0.02867   0.45458
           R3           0.02866   0.02868   0.45458
           A1           0.00944   0.00944  -0.01888   0.07455
           A2           0.00944  -0.01888   0.00944  -0.03727   0.07454
           A3          -0.01888   0.00944   0.00944  -0.03728  -0.03728
           D1          -0.00000  -0.00000  -0.00000  -0.00000   0.00000
                          A3        D1
           A3           0.07456
           D1           0.00000  -0.02134
 ITU=  0  0  0
     Eigenvalues ---   -0.02134   0.10928   0.10930   0.42843   0.42844
     Eigenvalues ---    0.51192
 Eigenvectors required to have negative eigenvalues:
                          D1        R3        R2        R1        A1
   1                    1.00000   0.00000   0.00000   0.00000   0.00000
                          A2        A3
   1                   -0.00000  -0.00000
 RFO step:  Lambda0=1.798908245D-15 Lambda= 0.00000000D+00.
 Linear search not attempted -- option 19 set.
 Iteration  1 RMS(Cart)=  0.00002822 RMS(Int)=  0.00000000
 Iteration  2 RMS(Cart)=  0.00000000 RMS(Int)=  0.00000000
 ITry= 1 IFail=0 DXMaxC= 3.95D-05 DCOld= 1.00D+10 DXMaxT= 3.00D-01 DXLimC= 3.00D+00 Rises=F
 Variable       Old X    -DE/DX   Delta X   Delta X   Delta X     New X
                                 (Linear)    (Quad)   (Total)
    R1        1.84559  -0.00002   0.00000  -0.00004  -0.00004   1.84554
    R2        1.84559  -0.00002   0.00000  -0.00004  -0.00004   1.84554
    R3        1.84559  -0.00002   0.00000  -0.00004  -0.00004   1.84554
    A1        2.09440  -0.00000   0.00000  -0.00000  -0.00000   2.09440
    A2        2.09440   0.00000   0.00000  -0.00000  -0.00000   2.09440
    A3        2.09440  -0.00000   0.00000   0.00000   0.00000   2.09440
    D1       -3.14159   0.00000   0.00000  -0.00000  -0.00000  -3.14159
         Item               Value     Threshold  Converged?
 Maximum Force            0.000022     0.000450     YES
 RMS     Force            0.000014     0.000300     YES
 Maximum Displacement     0.000040     0.001800     YES
 RMS     Displacement     0.000028     0.001200     YES
 Predicted change in Energy=-1.427011D-09
 Optimization completed.
    -- Stationary point found.
                           ----------------------------
                           !   Optimized Parameters   !
                           ! (Angstroms and Degrees)  !
 --------------------------                            --------------------------
 ! Name  Definition              Value          Derivative Info.                !
 --------------------------------------------------------------------------------
 ! R1    R(1,2)                  0.9766         -DE/DX =    0.0                 !
 ! R2    R(1,3)                  0.9766         -DE/DX =    0.0                 !
 ! R3    R(1,4)                  0.9766         -DE/DX =    0.0                 !
 ! A1    A(2,1,3)              120.0            -DE/DX =    0.0                 !
 ! A2    A(2,1,4)              120.0            -DE/DX =    0.0                 !
 ! A3    A(3,1,4)              120.0            -DE/DX =    0.0                 !
 ! D1    D(2,1,4,3)           -180.0            -DE/DX =    0.0                 !
 --------------------------------------------------------------------------------
 Lowest energy point so far.  Saving SCF results.
 Largest change from initial coordinates is atom    3       1.150 Angstoms.
 GradGradGradGradGradGradGradGradGradGradGradGradGradGradGradGradGradGrad

 Leave Link  103 at Mon Sep  5 10:41:13 2022, MaxMem=   262144000 cpu:               0.0 elap:               0.0
 (Enter /binaries/g16/l202.exe)
                          Input orientation:                          
 ---------------------------------------------------------------------
 Center     Atomic      Atomic             Coordinates (Angstroms)
 Number     Number       Type             X           Y           Z
 ---------------------------------------------------------------------
      1          7           0        1.087608   -0.339955   -0.009710
      2          1           0        1.983482    0.048612    0.006225
      3          1           0        0.602545   -0.483234    0.825763
      4          1           0        0.676795   -0.585243   -0.861119
 ---------------------------------------------------------------------
                    Distance matrix (angstroms):
                    1          2          3          4
     1  N    0.000000
     2  H    0.976642   0.000000
     3  H    0.976642   1.691594   0.000000
     4  H    0.976642   1.691594   1.691594   0.000000
 This structure is nearly, but not quite of a higher symmetry.
 Consider Symm=Loose if the higher symmetry is desired.
 Stoichiometry    H3N
 Framework group  C1[X(H3N)]
 Deg. of freedom     6
 Full point group                 C1      NOp   1
 RotChk:  IX=1 Diff= 4.63D-09
 Largest Abelian subgroup         C1      NOp   1
 Largest concise Abelian subgroup C1      NOp   1
                         Standard orientation:                         
 ---------------------------------------------------------------------
 Center     Atomic      Atomic             Coordinates (Angstroms)
 Number     Number       Type             X           Y           Z
 ---------------------------------------------------------------------
      1          7           0       -0.000000    0.000000    0.000000
      2          1           0        0.011762   -0.976441    0.015935
      3          1           0       -0.067608    0.501242    0.835473
      4          1           0        0.055846    0.475199   -0.851409
 ---------------------------------------------------------------------
 Rotational constants (GHZ):         350.4851963         350.4851885         175.2425962
 Leave Link  202 at Mon Sep  5 10:41:13 2022, MaxMem=   262144000 cpu:               0.0 elap:               0.0
 (Enter /binaries/g16/l601.exe)
 Copying SCF densities to generalized density rwf, IOpCl= 0 IROHF=0.

 **********************************************************************

            Population analysis using the SCF Density.

 **********************************************************************

 Orbital symmetries:
       Occupied  (A) (A) (A) (A)
       Virtual   (A) (A) (A)
 The electronic state is 1-A.
 Alpha  occ. eigenvalues --   -1.18485  -0.59384  -0.59384  -0.35155
 Alpha virt. eigenvalues --    0.15281   0.26539   0.26539
          Condensed to atoms (all electrons):
               1          2          3          4
     1  N    5.588550   0.000000   0.000000   0.000000
     2  H    0.000000   0.803817   0.000000   0.000000
     3  H    0.000000   0.000000   0.803817   0.000000
     4  H    0.000000   0.000000   0.000000   0.803817
 Mulliken charges:
               1
     1  N   -0.588550
     2  H    0.196183
     3  H    0.196183
     4  H    0.196183
 Sum of Mulliken charges =   0.00000
 Mulliken charges with hydrogens summed into heavy atoms:
               1
     1  N    0.000000
 Charge=              0.0000 electrons
 Dipole moment (field-independent basis, Debye):
    X=              0.0000    Y=              0.0000    Z=              0.0000  Tot=              0.0000
 N-N= 1.602478106017D+01 E-N=-1.154484979349D+01  KE=-1.506627945405D+01
 Leave Link  601 at Mon Sep  5 10:41:13 2022, MaxMem=   262144000 cpu:               0.0 elap:               0.0
 (Enter /binaries/g16/l9999.exe)
 Unable to Open any file for archive entry.
 1\1\GINC-WEB\FTS\RAM1\ZDO\H3N1\CALCUS\05-Sep-2022\0\\#p opt(ts, NoEige
 nTest, CalcFC) AM1\\File created by ccinput\\0,1\N,1.0876075295,-0.339
 9550567,-0.0097099911\H,1.9834824348,0.0486121962,0.0062254421\H,0.602
 5449201,-0.4832336591,0.8257634332\H,0.6767951066,-0.5852434731,-0.861
 1188674\\Version=ES64L-G16RevC.01\State=1-A\HF=-0.0048517\RMSD=7.075e-
 09\RMSF=1.103e-05\Dipole=-0.0000001,0.0000002,0.\PG=C01 [X(H3N1)]\\@
 The archive entry for this job was punched.


 The earth never tires,
 The earth is rude, silent, incomprehensible at first,
 Nature is rude and incomprehensible at first,
 Be not discouraged, keep on,
 There are divine things well envelop'd,
 I swear to you there are divine things more beautiful than words can tell.
                                 -- Walt Whitman
 Job cpu time:       0 days  0 hours  0 minutes  1.2 seconds.
 Elapsed time:       0 days  0 hours  0 minutes  1.1 seconds.
 File lengths (MBytes):  RWF=      6 Int=      0 D2E=      0 Chk=      2 Scr=      1
 Normal termination of Gaussian 16 at Mon Sep  5 10:41:13 2022.
