5
 energy: -4.002657495995 gnorm: 0.042902102621 xtb: 6.4.1 (afa7bdf)
C         4.10551231992085    3.41287093406648   -0.44624466261594
H         4.71845673576305    3.16807396462070    0.41075295209811
H         5.00276443114869    3.82786015443247    1.25235454449859
H         4.54125035770503    4.19843315044316   -1.05843794634433
H         3.09111615546238    3.68676179643719   -0.16742488763643
5
 energy: -4.003034341853 gnorm: 0.002427195995 xtb: 6.4.1 (afa7bdf)
C         4.10561273674645    3.41379283157790   -0.44555182426677
H         4.71740606624976    3.17640565198726    0.41382751215035
H         5.00670340452858    3.82156006722232    1.25514739489668
H         4.53985270031868    4.19699052276857   -1.06177748843547
H         3.08952509215653    3.68525092644394   -0.17064559434479
5
 energy: -4.003038496241 gnorm: 0.001612513283 xtb: 6.4.1 (afa7bdf)
C         4.10444893145002    3.40963456816461   -0.44983384656083
H         4.71684159177674    3.17385276291211    0.41144280598207
H         5.00767899055333    3.82530888099471    1.25888795870529
H         4.53891906447427    4.19800947232953   -1.05950950678786
H         3.09121142174565    3.68719431559903   -0.16998741133867
5
 energy: -4.003043541917 gnorm: 0.000720608136 xtb: 6.4.1 (afa7bdf)
C         4.10482970093838    3.41259996037489   -0.44751124043302
H         4.71802937842855    3.17536136620350    0.41424227003231
H         5.00785958826751    3.82247591816566    1.25755503234791
H         4.53925937258846    4.19761762091062   -1.06215054650495
H         3.08912195977710    3.68594513434533   -0.17113551544226
5
 energy: -4.003044950353 gnorm: 0.000168273163 xtb: 6.4.1 (afa7bdf)
C         4.10468675358222    3.41128066643364   -0.44850150470084
H         4.71790569917303    3.17510037244236    0.41389110315853
H         5.00724381776942    3.82320015452989    1.25696875709648
H         4.53922787678395    4.19787885911015   -1.06089625343346
H         3.09003585269139    3.68653994748396   -0.17046210212072
5
 energy: -4.003044991874 gnorm: 0.000026298171 xtb: 6.4.1 (afa7bdf)
C         4.10463471052182    3.41114131478869   -0.44866622952315
H         4.71798245124506    3.17507376848673    0.41400074092035
H         5.00719296963840    3.82323241440499    1.25690452646343
H         4.53926416878846    4.19795390090982   -1.06085086326964
H         3.09002569980627    3.68659860140978   -0.17038817459099
