5
 energy: -4.010954554622 xtb: 6.4.1 (afa7bdf)
C         4.11317685803231    3.43027353418308   -0.42342200933509
H         4.72181832314200    3.11277488376559    0.38414811211903
H         4.96715048219537    3.86358582797803    1.21457771087802
H         4.55844522715102    4.20116155315177   -1.04033273778215
H         3.09850910947931    3.68620420092153   -0.14397107587981
5
 energy: -4.009985794981 xtb: 6.4.1 (afa7bdf)
C         4.11232491591787    3.42718972308064   -0.42692829976296
H         4.72134402816787    3.11921519682360    0.38740516462478
H         4.97159064964528    3.85961005576136    1.21982815347797
H         4.55565096179778    4.20112210347384   -1.04239873887504
H         3.09818944447120    3.68686292086056   -0.14690627946475
5
 energy: -4.009052992373 xtb: 6.4.1 (afa7bdf)
C         4.11134384995741    3.42506193873919   -0.42975319351918
H         4.72093835641819    3.12626504780377    0.39078233653554
H         4.97604740220375    3.85504025910695    1.22448145656431
H         4.55352056899725    4.20073463427871   -1.04464746914582
H         3.09724982242341    3.68689812007137   -0.14986313043485
5
 energy: -4.008152929006 xtb: 6.4.1 (afa7bdf)
C         4.11031866154318    3.42285652866439   -0.43268797194379
H         4.72056374356703    3.13323336770305    0.39417465120820
H         4.98051491912779    3.85054855905868    1.22917217744688
H         4.55143068610717    4.20040288190899   -1.04687955869556
H         3.09627198965483    3.68695866266488   -0.15277929801574
5
 energy: -4.007284401340 xtb: 6.4.1 (afa7bdf)
C         4.10925469418777    3.42055161769662   -0.43574321037417
H         4.72020145243762    3.14011497342582    0.39753682491948
H         4.98497180914854    3.84615846649993    1.23390479472833
H         4.54937952999184    4.20012051165437   -1.04907010687798
H         3.09529251423424    3.68705443072326   -0.15562830239566
5
 energy: -4.006446778395 xtb: 6.4.1 (afa7bdf)
C         4.10828400181678    3.41851354561348   -0.43849340286352
H         4.71978623115457    3.14709668732425    0.40087035196208
H         4.98942960024223    3.84161975287449    1.23855351002833
H         4.54732037863232    4.19973343498749   -1.05136465190060
H         3.09427978815411    3.68703657920029   -0.15856580722629
5
 energy: -4.005637882413 xtb: 6.4.1 (afa7bdf)
C         4.10733625103495    3.41655429371196   -0.44116099442368
H         4.71935872845788    3.15408456635529    0.40418743142849
H         4.99388165266161    3.83705547101659    1.24317820248178
H         4.54527897167090    4.19932377907974   -1.05369267678470
H         3.09324439617467    3.68698188983642   -0.16151196270190
5
 energy: -4.004856370835 xtb: 6.4.1 (afa7bdf)
C         4.10641261580909    3.41467436376452   -0.44374378634785
H         4.71891552598589    3.16107731645856    0.40748175703430
H         4.99832694537025    3.83246834854135    1.24777877666137
H         4.54325544998236    4.19889004994172   -1.05605116347195
H         3.09218946285242    3.68688992129386   -0.16446558387586
5
 energy: -4.004100834624 xtb: 6.4.1 (afa7bdf)
C         4.10551231992085    3.41287093406648   -0.44624466261594
H         4.71845673576305    3.16807396462070    0.41075295209811
H         5.00276443114869    3.82786015443247    1.25235454449859
H         4.54125035770503    4.19843315044316   -1.05843794634433
H         3.09111615546238    3.68676179643719   -0.16742488763643
5
 energy: -4.003369921646 xtb: 6.4.1 (afa7bdf)
C         4.10463471052182    3.41114131478869   -0.44866622952315
H         4.71798245124506    3.17507376848673    0.41400074092035
H         5.00719296963840    3.82323241440499    1.25690452646343
H         4.53926416878846    4.19795390090982   -1.06085086326964
H         3.09002569980627    3.68659860140978   -0.17038817459099
