 Entering Gaussian System, Link 0=g16
 Input=calc.com
 Output=calc.log
 Initial command:
 /binaries/g16/l1.exe "/calcus/scratch/scr/22/Gau-4789.inp" -scrdir="/calcus/scratch/scr/22/"
 Entering Link 1 = /binaries/g16/l1.exe PID=      4791.
  
 Copyright (c) 1988-2019, Gaussian, Inc.  All Rights Reserved.
  
 This is part of the Gaussian(R) 16 program.  It is based on
 the Gaussian(R) 09 system (copyright 2009, Gaussian, Inc.),
 the Gaussian(R) 03 system (copyright 2003, Gaussian, Inc.),
 the Gaussian(R) 98 system (copyright 1998, Gaussian, Inc.),
 the Gaussian(R) 94 system (copyright 1995, Gaussian, Inc.),
 the Gaussian 92(TM) system (copyright 1992, Gaussian, Inc.),
 the Gaussian 90(TM) system (copyright 1990, Gaussian, Inc.),
 the Gaussian 88(TM) system (copyright 1988, Gaussian, Inc.),
 the Gaussian 86(TM) system (copyright 1986, Carnegie Mellon
 University), and the Gaussian 82(TM) system (copyright 1983,
 Carnegie Mellon University). Gaussian is a federally registered
 trademark of Gaussian, Inc.
  
 This software contains proprietary and confidential information,
 including trade secrets, belonging to Gaussian, Inc.
  
 This software is provided under written license and may be
 used, copied, transmitted, or stored only in accord with that
 written license.
  
 The following legend is applicable only to US Government
 contracts under FAR:
  
                    RESTRICTED RIGHTS LEGEND
  
 Use, reproduction and disclosure by the US Government is
 subject to restrictions as set forth in subparagraphs (a)
 and (c) of the Commercial Computer Software - Restricted
 Rights clause in FAR 52.227-19.
  
 Gaussian, Inc.
 340 Quinnipiac St., Bldg. 40, Wallingford CT 06492
  
  
 ---------------------------------------------------------------
 Warning -- This program may not be used in any manner that
 competes with the business of Gaussian, Inc. or will provide
 assistance to any competitor of Gaussian, Inc.  The licensee
 of this program is prohibited from giving any competitor of
 Gaussian, Inc. access to this program.  By using this program,
 the user acknowledges that Gaussian, Inc. is engaged in the
 business of creating and licensing software in the field of
 computational chemistry and represents and warrants to the
 licensee that it is not a competitor of Gaussian, Inc. and that
 it will not use this program in any manner prohibited above.
 ---------------------------------------------------------------
  

 Cite this work as:
 Gaussian 16, Revision C.01,
 M. J. Frisch, G. W. Trucks, H. B. Schlegel, G. E. Scuseria, 
 M. A. Robb, J. R. Cheeseman, G. Scalmani, V. Barone, 
 G. A. Petersson, H. Nakatsuji, X. Li, M. Caricato, A. V. Marenich, 
 J. Bloino, B. G. Janesko, R. Gomperts, B. Mennucci, H. P. Hratchian, 
 J. V. Ortiz, A. F. Izmaylov, J. L. Sonnenberg, D. Williams-Young, 
 F. Ding, F. Lipparini, F. Egidi, J. Goings, B. Peng, A. Petrone, 
 T. Henderson, D. Ranasinghe, V. G. Zakrzewski, J. Gao, N. Rega, 
 G. Zheng, W. Liang, M. Hada, M. Ehara, K. Toyota, R. Fukuda, 
 J. Hasegawa, M. Ishida, T. Nakajima, Y. Honda, O. Kitao, H. Nakai, 
 T. Vreven, K. Throssell, J. A. Montgomery, Jr., J. E. Peralta, 
 F. Ogliaro, M. J. Bearpark, J. J. Heyd, E. N. Brothers, K. N. Kudin, 
 V. N. Staroverov, T. A. Keith, R. Kobayashi, J. Normand, 
 K. Raghavachari, A. P. Rendell, J. C. Burant, S. S. Iyengar, 
 J. Tomasi, M. Cossi, J. M. Millam, M. Klene, C. Adamo, R. Cammi, 
 J. W. Ochterski, R. L. Martin, K. Morokuma, O. Farkas, 
 J. B. Foresman, and D. J. Fox, Gaussian, Inc., Wallingford CT, 2019.
 
 ******************************************
 Gaussian 16:  ES64L-G16RevC.01  3-Jul-2019
                29-May-2022 
 ******************************************
 %chk=in.chk
 %nproc=4
 Will use up to    4 processors via shared memory.
 %mem=2000MB
 ----------------------------------------
 #p opt(modredundant) HF/Def2SVP pop(nbo)
 ----------------------------------------
 1/18=120,19=15,38=1/1,3;
 2/9=110,12=2,17=6,18=5,40=1/2;
 3/5=43,7=101,11=9,25=1,30=1,71=1/1,2,3;
 4//1;
 5/5=2,38=5/2;
 6/7=2,8=2,9=2,10=2,28=1,40=1/1,7;
 7//1,2,3,16;
 1/18=20,19=15/3(2);
 2/9=110/2;
 99//99;
 2/9=110/2;
 3/5=43,7=101,11=9,25=1,30=1,71=1/1,2,3;
 4/5=5,16=3,69=1/1;
 5/5=2,38=5/2;
 7//1,2,3,16;
 1/18=20,19=15/3(-5);
 2/9=110/2;
 6/7=2,8=2,9=2,10=2,19=2,28=1,40=1/1,7;
 99/9=1/99;
 Leave Link    1 at Sun May 29 19:29:54 2022, MaxMem=   262144000 cpu:               0.1 elap:               0.0
 (Enter /binaries/g16/l101.exe)
 -----------------------
 File created by ccinput
 -----------------------
 Symbolic Z-matrix:
 Charge =  0 Multiplicity = 1
 C                     4.2918    3.6588    0. 
 H                     4.6485    2.65      0. 
 H                     4.6485    4.1632    0.8707 
 H                     4.6485    4.1632   -0.8797 
 H                     3.2218    3.6588    0. 
 
 The following ModRedundant input section has been read:
 B       1       2 S  10 0.3900                                                
 
 ITRead=  0  0  0  0  0
 MicOpt= -1 -1 -1 -1 -1
 NAtoms=      5 NQM=        5 NQMF=       0 NMMI=      0 NMMIF=      0
                NMic=       0 NMicF=      0.
                    Isotopes and Nuclear Properties:
 (Nuclear quadrupole moments (NQMom) in fm**2, nuclear magnetic moments (NMagM)
  in nuclear magnetons)

  Atom         1           2           3           4           5
 IAtWgt=          12           1           1           1           1
 AtmWgt=  12.0000000   1.0078250   1.0078250   1.0078250   1.0078250
 NucSpn=           0           1           1           1           1
 AtZEff=  -0.0000000  -0.0000000  -0.0000000  -0.0000000  -0.0000000
 NQMom=    0.0000000   0.0000000   0.0000000   0.0000000   0.0000000
 NMagM=    0.0000000   2.7928460   2.7928460   2.7928460   2.7928460
 AtZNuc=   6.0000000   1.0000000   1.0000000   1.0000000   1.0000000
 Leave Link  101 at Sun May 29 19:29:54 2022, MaxMem=   262144000 cpu:               0.5 elap:               0.1
 (Enter /binaries/g16/l103.exe)

 GradGradGradGradGradGradGradGradGradGradGradGradGradGradGradGradGradGrad
 Berny optimization.
 Initialization pass.
                           ----------------------------
                           !    Initial Parameters    !
                           ! (Angstroms and Degrees)  !
 --------------------------                            --------------------------
 ! Name  Definition              Value          Derivative Info.                !
 --------------------------------------------------------------------------------
 ! R1    R(1,2)                  1.07           Scan                            !
 ! R2    R(1,3)                  1.0676         estimate D2E/DX2                !
 ! R3    R(1,4)                  1.075          estimate D2E/DX2                !
 ! R4    R(1,5)                  1.07           estimate D2E/DX2                !
 ! A1    A(2,1,3)              109.5151         estimate D2E/DX2                !
 ! A2    A(2,1,4)              109.3762         estimate D2E/DX2                !
 ! A3    A(2,1,5)              109.473          estimate D2E/DX2                !
 ! A4    A(3,1,4)              109.5644         estimate D2E/DX2                !
 ! A5    A(3,1,5)              109.5186         estimate D2E/DX2                !
 ! A6    A(4,1,5)              109.3798         estimate D2E/DX2                !
 ! D1    D(2,1,4,3)           -120.0525         estimate D2E/DX2                !
 ! D2    D(2,1,5,3)            120.0839         estimate D2E/DX2                !
 ! D3    D(2,1,5,4)           -119.829          estimate D2E/DX2                !
 ! D4    D(3,1,5,4)            120.0871         estimate D2E/DX2                !
 --------------------------------------------------------------------------------
 Trust Radius=3.00D-01 FncErr=1.00D-07 GrdErr=1.00D-07 EigMax=2.50D+02 EigMin=1.00D-04
 Number of optimizations in scan=  11
 Number of steps in this run=     24 maximum allowed number of steps=    100.
 GradGradGradGradGradGradGradGradGradGradGradGradGradGradGradGradGradGrad

 Leave Link  103 at Sun May 29 19:29:54 2022, MaxMem=   262144000 cpu:               0.0 elap:               0.0
 (Enter /binaries/g16/l202.exe)
                          Input orientation:                          
 ---------------------------------------------------------------------
 Center     Atomic      Atomic             Coordinates (Angstroms)
 Number     Number       Type             X           Y           Z
 ---------------------------------------------------------------------
      1          6           0        4.291800    3.658800    0.000000
      2          1           0        4.648500    2.650000    0.000000
      3          1           0        4.648500    4.163200    0.870700
      4          1           0        4.648500    4.163200   -0.879700
      5          1           0        3.221800    3.658800    0.000000
 ---------------------------------------------------------------------
                    Distance matrix (angstroms):
                    1          2          3          4          5
     1  C    0.000000
     2  H    1.070006   0.000000
     3  H    1.067601   1.745822   0.000000
     4  H    1.074954   1.750327   1.750400   0.000000
     5  H    1.070000   1.747327   1.745855   1.750361   0.000000
 Stoichiometry    CH4
 Framework group  C1[X(CH4)]
 Deg. of freedom     9
 Full point group                 C1      NOp   1
 Largest Abelian subgroup         C1      NOp   1
 Largest concise Abelian subgroup C1      NOp   1
                         Standard orientation:                         
 ---------------------------------------------------------------------
 Center     Atomic      Atomic             Coordinates (Angstroms)
 Number     Number       Type             X           Y           Z
 ---------------------------------------------------------------------
      1          6           0       -0.000767    0.000001    0.000472
      2          1           0       -0.325680   -0.869163   -0.532348
      3          1           0       -0.412253   -0.010991    0.985525
      4          1           0        1.072605    0.002075    0.058743
      5          1           0       -0.330072    0.878070   -0.514750
 ---------------------------------------------------------------------
 Rotational constants (GHZ):         164.4303219         163.9529333         163.7655362
 Leave Link  202 at Sun May 29 19:29:54 2022, MaxMem=   262144000 cpu:               0.0 elap:               0.0
 (Enter /binaries/g16/l301.exe)
 Standard basis: def2SVP (5D, 7F)
 Ernie: Thresh=  0.10000D-02 Tol=  0.10000D-05 Strict=F.
 There are    35 symmetry adapted cartesian basis functions of A   symmetry.
 There are    34 symmetry adapted basis functions of A   symmetry.
    34 basis functions,    53 primitive gaussians,    35 cartesian basis functions
     5 alpha electrons        5 beta electrons
       nuclear repulsion energy        13.6784087271 Hartrees.
 IExCor=    0 DFT=F Ex=HF Corr=None ExCW=0 ScaHFX=  1.000000
 ScaDFX=  1.000000  1.000000  1.000000  1.000000 ScalE2=  1.000000  1.000000
 IRadAn=      5 IRanWt=     -1 IRanGd=            0 ICorTp=0 IEmpDi=  4
 NAtoms=    5 NActive=    5 NUniq=    5 SFac= 1.00D+00 NAtFMM=   60 NAOKFM=F Big=F
 Integral buffers will be    131072 words long.
 Raffenetti 1 integral format.
 Two-electron integral symmetry is turned on.
 Leave Link  301 at Sun May 29 19:29:54 2022, MaxMem=   262144000 cpu:               0.1 elap:               0.0
 (Enter /binaries/g16/l302.exe)
 NPDir=0 NMtPBC=     1 NCelOv=     1 NCel=       1 NClECP=     1 NCelD=      1
         NCelK=      1 NCelE2=     1 NClLst=     1 CellRange=     0.0.
 One-electron integrals computed using PRISM.
 One-electron integral symmetry used in STVInt
   1 Symmetry operations used in ECPInt.
 ECPInt:  NShTT=     171 NPrTT=     553 LenC2=     172 LenP2D=     543.
 LDataN:  DoStor=T MaxTD1= 4 Len=   56
 NBasis=    34 RedAO= T EigKep=  1.32D-02  NBF=    34
 NBsUse=    34 1.00D-06 EigRej= -1.00D+00 NBFU=    34
 Leave Link  302 at Sun May 29 19:29:54 2022, MaxMem=   262144000 cpu:               0.2 elap:               0.1
 (Enter /binaries/g16/l303.exe)
 DipDrv:  MaxL=1.
 Leave Link  303 at Sun May 29 19:29:54 2022, MaxMem=   262144000 cpu:               0.1 elap:               0.0
 (Enter /binaries/g16/l401.exe)
 ExpMin= 1.22D-01 ExpMax= 1.24D+03 ExpMxC= 1.86D+02 IAcc=3 IRadAn=         5 AccDes= 0.00D+00
 Harris functional with IExCor=  205 and IRadAn=       5 diagonalized for initial guess.
 HarFok:  IExCor=  205 AccDes= 0.00D+00 IRadAn=         5 IDoV= 1 UseB2=F ITyADJ=14
 ICtDFT=  3500011 ScaDFX=  1.000000  1.000000  1.000000  1.000000
 FoFCou: FMM=F IPFlag=           0 FMFlag=      100000 FMFlg1=           0
         NFxFlg=           0 DoJE=T BraDBF=F KetDBF=T FulRan=T
         wScrn=  0.000000 ICntrl=       500 IOpCl=  0 I1Cent=   200000004 NGrid=           0
         NMat0=    1 NMatS0=      1 NMatT0=    0 NMatD0=    1 NMtDS0=    0 NMtDT0=    0
 Petite list used in FoFCou.
 Harris En= -40.3454315785124    
 JPrj=0 DoOrth=F DoCkMO=F.
 Leave Link  401 at Sun May 29 19:29:54 2022, MaxMem=   262144000 cpu:               0.4 elap:               0.1
 (Enter /binaries/g16/l502.exe)
 Keep R1 ints in memory in canonical form, NReq=1009981.
 FoFCou: FMM=F IPFlag=           0 FMFlag=           0 FMFlg1=           0
         NFxFlg=           0 DoJE=F BraDBF=F KetDBF=F FulRan=T
         wScrn=  0.000000 ICntrl=       600 IOpCl=  0 I1Cent=           0 NGrid=           0
         NMat0=    1 NMatS0=    595 NMatT0=    0 NMatD0=    1 NMtDS0=    0 NMtDT0=    0
 Symmetry not used in FoFCou.
 Two-electron integral symmetry not used.
 Closed shell SCF:
 Using DIIS extrapolation, IDIIS=  1040.
 NGot=   262144000 LenX=   261963332 LenY=   261961666
 Requested convergence on RMS density matrix=1.00D-08 within 128 cycles.
 Requested convergence on MAX density matrix=1.00D-06.
 Requested convergence on             energy=1.00D-06.
 No special actions if energy rises.

 Cycle   1  Pass 1  IDiag  1:
 E= -40.0438133162222    
 DIIS: error= 5.91D-02 at cycle   1 NSaved=   1.
 NSaved= 1 IEnMin= 1 EnMin= -40.0438133162222     IErMin= 1 ErrMin= 5.91D-02
 ErrMax= 5.91D-02  0.00D+00 EMaxC= 1.00D-01 BMatC= 1.24D-01 BMatP= 1.24D-01
 IDIUse=3 WtCom= 4.09D-01 WtEn= 5.91D-01
 Coeff-Com:  0.100D+01
 Coeff-En:   0.100D+01
 Coeff:      0.100D+01
 Gap=     0.654 Goal=   None    Shift=    0.000
 GapD=    0.654 DampG=2.000 DampE=0.500 DampFc=1.0000 IDamp=-1.
 RMSDP=1.10D-02 MaxDP=1.47D-01              OVMax= 1.45D-01

 Cycle   2  Pass 1  IDiag  1:
 E= -40.1503990553717     Delta-E=       -0.106585739150 Rises=F Damp=F
 DIIS: error= 2.27D-02 at cycle   2 NSaved=   2.
 NSaved= 2 IEnMin= 2 EnMin= -40.1503990553717     IErMin= 2 ErrMin= 2.27D-02
 ErrMax= 2.27D-02  0.00D+00 EMaxC= 1.00D-01 BMatC= 1.84D-02 BMatP= 1.24D-01
 IDIUse=3 WtCom= 7.73D-01 WtEn= 2.27D-01
 Coeff-Com:  0.258D+00 0.742D+00
 Coeff-En:   0.000D+00 0.100D+01
 Coeff:      0.199D+00 0.801D+00
 Gap=     0.746 Goal=   None    Shift=    0.000
 RMSDP=3.52D-03 MaxDP=5.02D-02 DE=-1.07D-01 OVMax= 4.12D-02

 Cycle   3  Pass 1  IDiag  1:
 E= -40.1678447304105     Delta-E=       -0.017445675039 Rises=F Damp=F
 DIIS: error= 2.84D-03 at cycle   3 NSaved=   3.
 NSaved= 3 IEnMin= 3 EnMin= -40.1678447304105     IErMin= 3 ErrMin= 2.84D-03
 ErrMax= 2.84D-03  0.00D+00 EMaxC= 1.00D-01 BMatC= 2.18D-04 BMatP= 1.84D-02
 IDIUse=3 WtCom= 9.72D-01 WtEn= 2.84D-02
 Coeff-Com: -0.308D-01 0.253D-01 0.101D+01
 Coeff-En:   0.000D+00 0.000D+00 0.100D+01
 Coeff:     -0.299D-01 0.246D-01 0.101D+01
 Gap=     0.737 Goal=   None    Shift=    0.000
 RMSDP=4.26D-04 MaxDP=4.29D-03 DE=-1.74D-02 OVMax= 5.67D-03

 Cycle   4  Pass 1  IDiag  1:
 E= -40.1681233366103     Delta-E=       -0.000278606200 Rises=F Damp=F
 DIIS: error= 4.20D-04 at cycle   4 NSaved=   4.
 NSaved= 4 IEnMin= 4 EnMin= -40.1681233366103     IErMin= 4 ErrMin= 4.20D-04
 ErrMax= 4.20D-04  0.00D+00 EMaxC= 1.00D-01 BMatC= 3.02D-06 BMatP= 2.18D-04
 IDIUse=3 WtCom= 9.96D-01 WtEn= 4.20D-03
 Coeff-Com:  0.829D-02-0.200D-01-0.346D+00 0.136D+01
 Coeff-En:   0.000D+00 0.000D+00 0.000D+00 0.100D+01
 Coeff:      0.826D-02-0.200D-01-0.345D+00 0.136D+01
 Gap=     0.737 Goal=   None    Shift=    0.000
 RMSDP=1.23D-04 MaxDP=9.73D-04 DE=-2.79D-04 OVMax= 1.06D-03

 Cycle   5  Pass 1  IDiag  1:
 E= -40.1681298711068     Delta-E=       -0.000006534497 Rises=F Damp=F
 DIIS: error= 1.87D-05 at cycle   5 NSaved=   5.
 NSaved= 5 IEnMin= 5 EnMin= -40.1681298711068     IErMin= 5 ErrMin= 1.87D-05
 ErrMax= 1.87D-05  0.00D+00 EMaxC= 1.00D-01 BMatC= 2.02D-08 BMatP= 3.02D-06
 IDIUse=1 WtCom= 1.00D+00 WtEn= 0.00D+00
 Coeff-Com: -0.167D-02 0.431D-02 0.750D-01-0.344D+00 0.127D+01
 Coeff:     -0.167D-02 0.431D-02 0.750D-01-0.344D+00 0.127D+01
 Gap=     0.738 Goal=   None    Shift=    0.000
 RMSDP=1.47D-05 MaxDP=9.10D-05 DE=-6.53D-06 OVMax= 9.91D-05

 Cycle   6  Pass 1  IDiag  1:
 E= -40.1681299182181     Delta-E=       -0.000000047111 Rises=F Damp=F
 DIIS: error= 1.05D-06 at cycle   6 NSaved=   6.
 NSaved= 6 IEnMin= 6 EnMin= -40.1681299182181     IErMin= 6 ErrMin= 1.05D-06
 ErrMax= 1.05D-06  0.00D+00 EMaxC= 1.00D-01 BMatC= 2.29D-11 BMatP= 2.02D-08
 IDIUse=1 WtCom= 1.00D+00 WtEn= 0.00D+00
 Coeff-Com:  0.873D-04-0.198D-03-0.370D-02 0.172D-01-0.767D-01 0.106D+01
 Coeff:      0.873D-04-0.198D-03-0.370D-02 0.172D-01-0.767D-01 0.106D+01
 Gap=     0.738 Goal=   None    Shift=    0.000
 RMSDP=5.23D-07 MaxDP=3.45D-06 DE=-4.71D-08 OVMax= 2.73D-06

 Cycle   7  Pass 1  IDiag  1:
 E= -40.1681299182585     Delta-E=       -0.000000000040 Rises=F Damp=F
 DIIS: error= 1.50D-07 at cycle   7 NSaved=   7.
 NSaved= 7 IEnMin= 7 EnMin= -40.1681299182585     IErMin= 7 ErrMin= 1.50D-07
 ErrMax= 1.50D-07  0.00D+00 EMaxC= 1.00D-01 BMatC= 5.15D-13 BMatP= 2.29D-11
 IDIUse=1 WtCom= 1.00D+00 WtEn= 0.00D+00
 Coeff-Com:  0.271D-05-0.120D-04-0.146D-03 0.647D-03-0.121D-02-0.142D+00
 Coeff-Com:  0.114D+01
 Coeff:      0.271D-05-0.120D-04-0.146D-03 0.647D-03-0.121D-02-0.142D+00
 Coeff:      0.114D+01
 Gap=     0.738 Goal=   None    Shift=    0.000
 RMSDP=8.56D-08 MaxDP=6.78D-07 DE=-4.04D-11 OVMax= 4.85D-07

 Cycle   8  Pass 1  IDiag  1:
 E= -40.1681299182596     Delta-E=       -0.000000000001 Rises=F Damp=F
 DIIS: error= 1.28D-08 at cycle   8 NSaved=   8.
 NSaved= 8 IEnMin= 8 EnMin= -40.1681299182596     IErMin= 8 ErrMin= 1.28D-08
 ErrMax= 1.28D-08  0.00D+00 EMaxC= 1.00D-01 BMatC= 7.79D-15 BMatP= 5.15D-13
 IDIUse=1 WtCom= 1.00D+00 WtEn= 0.00D+00
 Coeff-Com: -0.352D-06 0.131D-05 0.196D-04-0.928D-04 0.319D-03 0.107D-01
 Coeff-Com: -0.151D+00 0.114D+01
 Coeff:     -0.352D-06 0.131D-05 0.196D-04-0.928D-04 0.319D-03 0.107D-01
 Coeff:     -0.151D+00 0.114D+01
 Gap=     0.738 Goal=   None    Shift=    0.000
 RMSDP=6.55D-09 MaxDP=6.46D-08 DE=-1.09D-12 OVMax= 7.15D-08

 SCF Done:  E(RHF) =  -40.1681299183     A.U. after    8 cycles
            NFock=  8  Conv=0.66D-08     -V/T= 2.0048
 KE= 3.997686483991D+01 PE=-1.200706156377D+02 EE= 2.624721215245D+01
 Leave Link  502 at Sun May 29 19:29:54 2022, MaxMem=   262144000 cpu:               0.3 elap:               0.1
 (Enter /binaries/g16/l601.exe)
 Copying SCF densities to generalized density rwf, IOpCl= 0 IROHF=0.

 **********************************************************************

            Population analysis using the SCF Density.

 **********************************************************************

 Orbital symmetries:
       Occupied  (A) (A) (A) (A) (A)
       Virtual   (A) (A) (A) (A) (A) (A) (A) (A) (A) (A) (A) (A)
                 (A) (A) (A) (A) (A) (A) (A) (A) (A) (A) (A) (A)
                 (A) (A) (A) (A) (A)
 The electronic state is 1-A.
 Alpha  occ. eigenvalues --  -11.20859  -0.94074  -0.55107  -0.55033  -0.54893
 Alpha virt. eigenvalues --    0.18858   0.27684   0.27734   0.27754   0.59149
 Alpha virt. eigenvalues --    0.59170   0.59212   0.88043   0.93738   0.93965
 Alpha virt. eigenvalues --    0.94074   1.03260   1.33680   1.33726   1.82409
 Alpha virt. eigenvalues --    1.82418   1.82549   2.06321   2.06671   2.06765
 Alpha virt. eigenvalues --    2.47405   2.47469   2.47688   2.89052   2.89103
 Alpha virt. eigenvalues --    3.01757   3.30519   3.31116   3.31401
          Condensed to atoms (all electrons):
               1          2          3          4          5
     1  C    4.458985   0.415612   0.415883   0.415200   0.415615
     2  H    0.415612   0.620037  -0.021878  -0.022054  -0.021901
     3  H    0.415883  -0.021878   0.619684  -0.021873  -0.021876
     4  H    0.415200  -0.022054  -0.021873   0.619917  -0.022052
     5  H    0.415615  -0.021901  -0.021876  -0.022052   0.620023
 Mulliken charges:
               1
     1  C   -0.121296
     2  H    0.030183
     3  H    0.030060
     4  H    0.030862
     5  H    0.030190
 Sum of Mulliken charges =  -0.00000
 Mulliken charges with hydrogens summed into heavy atoms:
               1
     1  C   -0.000000
 Electronic spatial extent (au):  <R**2>=             34.8918
 Charge=             -0.0000 electrons
 Dipole moment (field-independent basis, Debye):
    X=             -0.0035    Y=             -0.0000    Z=              0.0004  Tot=              0.0035
 Quadrupole moment (field-independent basis, Debye-Ang):
   XX=             -8.3026   YY=             -8.3031   ZZ=             -8.3019
   XY=             -0.0000   XZ=             -0.0034   YZ=             -0.0001
 Traceless Quadrupole moment (field-independent basis, Debye-Ang):
   XX=             -0.0001   YY=             -0.0005   ZZ=              0.0006
   XY=             -0.0000   XZ=             -0.0034   YZ=             -0.0001
 Octapole moment (field-independent basis, Debye-Ang**2):
  XXX=              0.6315  YYY=              0.0120  ZZZ=              0.4055  XYY=             -0.3049
  XXY=              0.0023  XXZ=              0.0748  XZZ=             -0.3512  YZZ=             -0.0145
  YYZ=             -0.4742  XYZ=              0.0019
 Hexadecapole moment (field-independent basis, Debye-Ang**3):
 XXXX=            -14.7366 YYYY=            -14.8945 ZZZZ=            -14.9380 XXXY=              0.0020
 XXXZ=              0.0371 YYYX=             -0.0108 YYYZ=              0.0010 ZZZX=             -0.3435
 ZZZY=              0.0008 XXYY=             -5.2301 XXZZ=             -5.1524 YYZZ=             -4.9246
 XXYZ=             -0.0022 YYXZ=              0.2906 ZZXY=              0.0088
 N-N= 1.367840872710D+01 E-N=-1.200706157071D+02  KE= 3.997686483991D+01
 No NMR shielding tensors so no spin-rotation constants.
 Leave Link  601 at Sun May 29 19:29:54 2022, MaxMem=   262144000 cpu:               0.2 elap:               0.1
 (Enter /binaries/g16/l607.exe)
 ******************************Gaussian NBO Version 3.1******************************
             N A T U R A L   A T O M I C   O R B I T A L   A N D
          N A T U R A L   B O N D   O R B I T A L   A N A L Y S I S
 ******************************Gaussian NBO Version 3.1******************************
       /RESON  / : Allow strongly delocalized NBO set

 Analyzing the SCF density

 Job title: File created by ccinput                                         

 Storage needed:      3658 in NPA,      4765 in NBO ( 262143825 available)
 GSVD:  LWork=         442 too small for GESVD, short by         986 words or         986 for optimal perf.


 NATURAL POPULATIONS:  Natural atomic orbital occupancies 
                                                          
   NAO  Atom  No  lang   Type(AO)    Occupancy      Energy
 ----------------------------------------------------------
     1    C    1  S      Cor( 1S)     1.99949     -11.08392
     2    C    1  S      Val( 2S)     1.14143      -0.24838
     3    C    1  S      Ryd( 3S)     0.00000       0.95721
     4    C    1  px     Val( 2p)     1.20308      -0.04321
     5    C    1  px     Ryd( 3p)     0.00000       0.71683
     6    C    1  py     Val( 2p)     1.20311      -0.04213
     7    C    1  py     Ryd( 3p)     0.00000       0.71653
     8    C    1  pz     Val( 2p)     1.20312      -0.04162
     9    C    1  pz     Ryd( 3p)     0.00000       0.71641
    10    C    1  dxy    Ryd( 3d)     0.00036       2.52266
    11    C    1  dxz    Ryd( 3d)     0.00050       2.56929
    12    C    1  dyz    Ryd( 3d)     0.00091       2.70463
    13    C    1  dx2y2  Ryd( 3d)     0.00119       2.79065
    14    C    1  dz2    Ryd( 3d)     0.00084       2.68264

    15    H    2  S      Val( 1S)     0.80962       0.16180
    16    H    2  S      Ryd( 2S)     0.00056       0.44712
    17    H    2  px     Ryd( 2p)     0.00020       2.05140
    18    H    2  py     Ryd( 2p)     0.00082       2.49563
    19    H    2  pz     Ryd( 2p)     0.00037       2.17370

    20    H    3  S      Val( 1S)     0.80993       0.16329
    21    H    3  S      Ryd( 2S)     0.00056       0.44563
    22    H    3  px     Ryd( 2p)     0.00026       2.09754
    23    H    3  py     Ryd( 2p)     0.00010       1.98111
    24    H    3  pz     Ryd( 2p)     0.00103       2.65035

    25    H    4  S      Val( 1S)     0.80900       0.15877
    26    H    4  S      Ryd( 2S)     0.00055       0.44994
    27    H    4  px     Ryd( 2p)     0.00118       2.74787
    28    H    4  py     Ryd( 2p)     0.00010       1.97646
    29    H    4  pz     Ryd( 2p)     0.00011       1.97938

    30    H    5  S      Val( 1S)     0.80962       0.16181
    31    H    5  S      Ryd( 2S)     0.00056       0.44711
    32    H    5  px     Ryd( 2p)     0.00020       2.05337
    33    H    5  py     Ryd( 2p)     0.00083       2.50627
    34    H    5  pz     Ryd( 2p)     0.00035       2.16111


 Summary of Natural Population Analysis:                  
                                                          
                                       Natural Population 
                Natural  -----------------------------------------------
    Atom  No    Charge         Core      Valence    Rydberg      Total
 -----------------------------------------------------------------------
      C    1   -0.75403      1.99949     4.75074    0.00380     6.75403
      H    2    0.18843      0.00000     0.80962    0.00195     0.81157
      H    3    0.18812      0.00000     0.80993    0.00195     0.81188
      H    4    0.18906      0.00000     0.80900    0.00194     0.81094
      H    5    0.18843      0.00000     0.80962    0.00195     0.81157
 =======================================================================
   * Total *    0.00000      1.99949     7.98891    0.01159    10.00000

                                 Natural Population      
 --------------------------------------------------------
   Core                       1.99949 ( 99.9747% of   2)
   Valence                    7.98891 ( 99.8614% of   8)
   Natural Minimal Basis      9.98841 ( 99.8841% of  10)
   Natural Rydberg Basis      0.01159 (  0.1159% of  10)
 --------------------------------------------------------

    Atom  No          Natural Electron Configuration
 ----------------------------------------------------------------------------
      C    1      [core]2S( 1.14)2p( 3.61)
      H    2            1S( 0.81)
      H    3            1S( 0.81)
      H    4            1S( 0.81)
      H    5            1S( 0.81)


 NATURAL BOND ORBITAL ANALYSIS:

                       Occupancies       Lewis Structure    Low   High
           Occ.    -------------------  -----------------   occ   occ
  Cycle   Thresh.   Lewis   Non-Lewis     CR  BD  3C  LP    (L)   (NL)   Dev
 =============================================================================
   1(1)    1.90     9.99533   0.00467      1   4   0   0     0      0    0.00
 -----------------------------------------------------------------------------

 Structure accepted: No low occupancy Lewis orbitals

 --------------------------------------------------------
   Core                      1.99949 ( 99.975% of   2)
   Valence Lewis             7.99584 ( 99.948% of   8)
  ==================       ============================
   Total Lewis               9.99533 ( 99.953% of  10)
  -----------------------------------------------------
   Valence non-Lewis         0.00150 (  0.015% of  10)
   Rydberg non-Lewis         0.00317 (  0.032% of  10)
  ==================       ============================
   Total non-Lewis           0.00467 (  0.047% of  10)
 --------------------------------------------------------


       (Occupancy)   Bond orbital/ Coefficients/ Hybrids
 ---------------------------------------------------------------------------------
     1. (1.99896) BD ( 1) C   1 - H   2  
                ( 59.45%)   0.7710* C   1 s( 25.01%)p 3.00( 74.92%)d 0.00(  0.08%)
                                            0.0001  0.5001  0.0001 -0.2628 -0.0000
                                           -0.7031 -0.0001 -0.4310 -0.0001  0.0121
                                            0.0074  0.0197 -0.0138 -0.0036
                ( 40.55%)   0.6368* H   2 s( 99.86%)p 0.00(  0.14%)
                                            0.9993  0.0008  0.0114  0.0306  0.0187
     2. (1.99896) BD ( 1) C   1 - H   3  
                ( 59.44%)   0.7709* C   1 s( 25.12%)p 2.98( 74.80%)d 0.00(  0.08%)
                                            0.0001  0.5012  0.0003 -0.3327 -0.0003
                                           -0.0089 -0.0000  0.7983  0.0006  0.0002
                                           -0.0174 -0.0005  0.0036  0.0218
                ( 40.56%)   0.6369* H   3 s( 99.86%)p 0.00(  0.14%)
                                            0.9993  0.0008  0.0145  0.0004 -0.0347
     3. (1.99896) BD ( 1) C   1 - H   4  
                ( 59.48%)   0.7712* C   1 s( 24.87%)p 3.02( 75.05%)d 0.00(  0.08%)
                                            0.0001  0.4987 -0.0004  0.8650 -0.0009
                                            0.0017 -0.0000  0.0477 -0.0001  0.0001
                                            0.0026  0.0000  0.0241 -0.0139
                ( 40.52%)   0.6365* H   4 s( 99.86%)p 0.00(  0.14%)
                                            0.9993  0.0008 -0.0376 -0.0001 -0.0020
     4. (1.99896) BD ( 1) C   1 - H   5  
                ( 59.45%)   0.7710* C   1 s( 25.01%)p 3.00( 74.91%)d 0.00(  0.08%)
                                            0.0001  0.5001  0.0001 -0.2664 -0.0000
                                            0.7103  0.0001 -0.4167 -0.0001 -0.0124
                                            0.0072 -0.0192 -0.0141 -0.0043
                ( 40.55%)   0.6368* H   5 s( 99.86%)p 0.00(  0.14%)
                                            0.9993  0.0008  0.0116 -0.0309  0.0181
     5. (1.99949) CR ( 1) C   1           s(100.00%)
                                            1.0000 -0.0003  0.0000 -0.0000  0.0000
                                            0.0000  0.0000  0.0000 -0.0000 -0.0000
                                           -0.0000 -0.0000  0.0000  0.0000
     6. (0.00000) RY*( 1) C   1           s(100.00%)p 0.00(  0.00%)
     7. (0.00000) RY*( 2) C   1           s(  0.00%)p 1.00(100.00%)
     8. (0.00000) RY*( 3) C   1           s(  0.00%)p 1.00(100.00%)
     9. (0.00000) RY*( 4) C   1           s(  0.00%)p 1.00(100.00%)
    10. (0.00000) RY*( 5) C   1           s(  0.00%)p 1.00(  0.03%)d99.99( 99.97%)
    11. (0.00000) RY*( 6) C   1           s(  0.00%)p 1.00(  0.04%)d99.99( 99.96%)
    12. (0.00000) RY*( 7) C   1           s(  0.00%)p 1.00(  0.08%)d99.99( 99.92%)
    13. (0.00000) RY*( 8) C   1           s(  0.00%)p 1.00(  0.10%)d99.99( 99.90%)
    14. (0.00000) RY*( 9) C   1           s(  0.00%)p 1.00(  0.07%)d99.99( 99.93%)
    15. (0.00059) RY*( 1) H   2           s( 95.10%)p 0.05(  4.90%)
                                            0.0076  0.9752 -0.0697 -0.1793 -0.1094
    16. (0.00010) RY*( 2) H   2           s(  0.00%)p 1.00(100.00%)
                                            0.0004  0.0006  0.9500 -0.2668 -0.1623
    17. (0.00010) RY*( 3) H   2           s(  0.00%)p 1.00(100.00%)
                                           -0.0001  0.0002 -0.0002 -0.5203  0.8540
    18. (0.00000) RY*( 4) H   2           s(  5.04%)p18.85( 94.96%)
    19. (0.00059) RY*( 1) H   3           s( 95.08%)p 0.05(  4.92%)
                                            0.0076  0.9750 -0.0846 -0.0022  0.2051
    20. (0.00010) RY*( 2) H   3           s(  0.00%)p 1.00(100.00%)
                                           -0.0001  0.0018 -0.9215  0.0000 -0.3885
    21. (0.00010) RY*( 3) H   3           s(  0.00%)p 1.00(100.00%)
                                           -0.0000 -0.0000 -0.0040  0.9999  0.0094
    22. (0.00000) RY*( 4) H   3           s(  5.06%)p18.75( 94.94%)
    23. (0.00058) RY*( 1) H   4           s( 95.06%)p 0.05(  4.94%)
                                            0.0076  0.9749  0.2218  0.0004  0.0159
    24. (0.00010) RY*( 2) H   4           s(  0.00%)p 1.00(100.00%)
                                           -0.0000 -0.0000 -0.0019  1.0000 -0.0001
    25. (0.00010) RY*( 3) H   4           s(  0.00%)p 1.00(100.00%)
                                            0.0003  0.0023  0.0617 -0.0000 -0.9981
    26. (0.00000) RY*( 4) H   4           s(  5.08%)p18.67( 94.92%)
    27. (0.00059) RY*( 1) H   5           s( 95.10%)p 0.05(  4.90%)
                                            0.0076  0.9752 -0.0705  0.1812 -0.1058
    28. (0.00010) RY*( 2) H   5           s(  0.00%)p 1.00(100.00%)
                                            0.0004  0.0006  0.9486  0.2734 -0.1592
    29. (0.00010) RY*( 3) H   5           s(  0.00%)p 1.00(100.00%)
                                           -0.0001  0.0001 -0.0002  0.5036  0.8639
    30. (0.00000) RY*( 4) H   5           s(  5.04%)p18.84( 94.96%)
    31. (0.00038) BD*( 1) C   1 - H   2  
                ( 40.55%)   0.6368* C   1 s( 25.01%)p 3.00( 74.92%)d 0.00(  0.08%)
                                           -0.0001 -0.5001 -0.0001  0.2628  0.0000
                                            0.7031  0.0001  0.4310  0.0001 -0.0121
                                           -0.0074 -0.0197  0.0138  0.0036
                ( 59.45%)  -0.7710* H   2 s( 99.86%)p 0.00(  0.14%)
                                           -0.9993 -0.0008 -0.0114 -0.0306 -0.0187
    32. (0.00038) BD*( 1) C   1 - H   3  
                ( 40.56%)   0.6369* C   1 s( 25.12%)p 2.98( 74.80%)d 0.00(  0.08%)
                                           -0.0001 -0.5012 -0.0003  0.3327  0.0003
                                            0.0089  0.0000 -0.7983 -0.0006 -0.0002
                                            0.0174  0.0005 -0.0036 -0.0218
                ( 59.44%)  -0.7709* H   3 s( 99.86%)p 0.00(  0.14%)
                                           -0.9993 -0.0008 -0.0145 -0.0004  0.0347
    33. (0.00037) BD*( 1) C   1 - H   4  
                ( 40.52%)   0.6365* C   1 s( 24.87%)p 3.02( 75.05%)d 0.00(  0.08%)
                                           -0.0001 -0.4987  0.0004 -0.8650  0.0009
                                           -0.0017  0.0000 -0.0477  0.0001 -0.0001
                                           -0.0026 -0.0000 -0.0241  0.0139
                ( 59.48%)  -0.7712* H   4 s( 99.86%)p 0.00(  0.14%)
                                           -0.9993 -0.0008  0.0376  0.0001  0.0020
    34. (0.00038) BD*( 1) C   1 - H   5  
                ( 40.55%)   0.6368* C   1 s( 25.01%)p 3.00( 74.91%)d 0.00(  0.08%)
                                           -0.0001 -0.5001 -0.0001  0.2664  0.0000
                                           -0.7103 -0.0001  0.4167  0.0001  0.0124
                                           -0.0072  0.0192  0.0141  0.0043
                ( 59.45%)  -0.7710* H   5 s( 99.86%)p 0.00(  0.14%)
                                           -0.9993 -0.0008 -0.0116  0.0309 -0.0181


 NHO Directionality and "Bond Bending" (deviations from line of nuclear centers)

         [Thresholds for printing:  angular deviation  >  1.0 degree]
                                    hybrid p-character > 25.0%
                                    orbital occupancy  >  0.10e

                                Line of Centers        Hybrid 1              Hybrid 2
                                ---------------  -------------------   ------------------
                NBO               Theta   Phi    Theta   Phi    Dev    Theta   Phi    Dev
 ========================================================================================
    None exceeding thresholds


 Second Order Perturbation Theory Analysis of Fock Matrix in NBO Basis

     Threshold for printing:   0.50 kcal/mol
                                                                              E(2)  E(j)-E(i) F(i,j)
         Donor NBO (i)                     Acceptor NBO (j)                 kcal/mol   a.u.    a.u. 
 ===================================================================================================

 within unit  1
   5. CR (   1) C   1                / 15. RY*(   1) H   2                    0.66   11.71    0.078
   5. CR (   1) C   1                / 19. RY*(   1) H   3                    0.66   11.71    0.079
   5. CR (   1) C   1                / 23. RY*(   1) H   4                    0.65   11.71    0.078
   5. CR (   1) C   1                / 27. RY*(   1) H   5                    0.66   11.71    0.078


 Natural Bond Orbitals (Summary):

                                                            Principal Delocalizations
           NBO                        Occupancy    Energy   (geminal,vicinal,remote)
 ====================================================================================
 Molecular unit  1  (CH4)
     1. BD (   1) C   1 - H   2          1.99896    -0.67772   
     2. BD (   1) C   1 - H   3          1.99896    -0.67925   
     3. BD (   1) C   1 - H   4          1.99896    -0.67502   
     4. BD (   1) C   1 - H   5          1.99896    -0.67773   
     5. CR (   1) C   1                  1.99949   -11.08346  19(v),15(v),27(v),23(v)
     6. RY*(   1) C   1                  0.00000     0.95721   
     7. RY*(   2) C   1                  0.00000     0.71698   
     8. RY*(   3) C   1                  0.00000     0.71650   
     9. RY*(   4) C   1                  0.00000     0.71629   
    10. RY*(   5) C   1                  0.00000     2.52031   
    11. RY*(   6) C   1                  0.00000     2.56602   
    12. RY*(   7) C   1                  0.00000     2.69894   
    13. RY*(   8) C   1                  0.00000     2.78318   
    14. RY*(   9) C   1                  0.00000     2.67737   
    15. RY*(   1) H   2                  0.00059     0.62502   
    16. RY*(   2) H   2                  0.00010     1.97932   
    17. RY*(   3) H   2                  0.00010     1.97980   
    18. RY*(   4) H   2                  0.00000     2.57147   
    19. RY*(   1) H   3                  0.00059     0.62476   
    20. RY*(   2) H   3                  0.00010     1.98073   
    21. RY*(   3) H   3                  0.00010     1.98103   
    22. RY*(   4) H   3                  0.00000     2.57577   
    23. RY*(   1) H   4                  0.00058     0.62819   
    24. RY*(   2) H   4                  0.00010     1.97646   
    25. RY*(   3) H   4                  0.00010     1.97714   
    26. RY*(   4) H   4                  0.00000     2.55982   
    27. RY*(   1) H   5                  0.00059     0.62506   
    28. RY*(   2) H   5                  0.00010     1.97933   
    29. RY*(   3) H   5                  0.00010     1.97980   
    30. RY*(   4) H   5                  0.00000     2.57143   
    31. BD*(   1) C   1 - H   2          0.00038     0.76417   
    32. BD*(   1) C   1 - H   3          0.00038     0.76836   
    33. BD*(   1) C   1 - H   4          0.00037     0.75578   
    34. BD*(   1) C   1 - H   5          0.00038     0.76418   
       -------------------------------
              Total Lewis    9.99533  ( 99.9533%)
        Valence non-Lewis    0.00150  (  0.0150%)
        Rydberg non-Lewis    0.00317  (  0.0317%)
       -------------------------------
            Total unit  1   10.00000  (100.0000%)
           Charge unit  1    0.00000
 Leave Link  607 at Sun May 29 19:29:54 2022, MaxMem=   262144000 cpu:               1.2 elap:               0.3
 (Enter /binaries/g16/l701.exe)
 ... and contract with generalized density number  0.
 Compute integral first derivatives.
   1 Symmetry operations used in ECPInt.
 ECPInt:  NShTT=     171 NPrTT=     553 LenC2=     172 LenP2D=     543.
 LDataN:  DoStor=T MaxTD1= 5 Len=  102
 Leave Link  701 at Sun May 29 19:29:55 2022, MaxMem=   262144000 cpu:               0.2 elap:               0.1
 (Enter /binaries/g16/l702.exe)
 L702 exits ... SP integral derivatives will be done elsewhere.
 Leave Link  702 at Sun May 29 19:29:55 2022, MaxMem=   262144000 cpu:               0.1 elap:               0.0
 (Enter /binaries/g16/l703.exe)
 Integral derivatives from FoFJK, PRISM(SPDF).
 Compute integral first derivatives, UseDBF=F ICtDFT=           0.
 Calling FoFJK, ICntrl=      2127 FMM=F ISym2X=0 I1Cent= 0 IOpClX= 0 NMat=1 NMatS=1 NMatT=0.
 FoFJK:  IHMeth= 1 ICntrl=    2127 DoSepK=F KAlg= 0 I1Cent=           0 FoldK=F
 IRaf=         0 NMat=       1 IRICut=       1 DoRegI=T DoRafI=F ISym2E= 0 IDoP0=0 IntGTp=1.
 FoFCou: FMM=F IPFlag=           0 FMFlag=      100000 FMFlg1=         800
         NFxFlg=           0 DoJE=F BraDBF=F KetDBF=F FulRan=T
         wScrn=  0.000000 ICntrl=      2127 IOpCl=  0 I1Cent=           0 NGrid=           0
         NMat0=    1 NMatS0=      1 NMatT0=    0 NMatD0=    1 NMtDS0=    0 NMtDT0=    0
 Symmetry not used in FoFCou.
 Leave Link  703 at Sun May 29 19:29:55 2022, MaxMem=   262144000 cpu:               0.3 elap:               0.1
 (Enter /binaries/g16/l716.exe)
 Dipole        =-1.37737012D-03-1.36478133D-05 1.64880065D-04
 ***** Axes restored to original set *****
 -------------------------------------------------------------------
 Center     Atomic                   Forces (Hartrees/Bohr)
 Number     Number              X              Y              Z
 -------------------------------------------------------------------
      1        6           0.000537623    0.000741490   -0.004746594
      2        1           0.004977475   -0.014129602    0.000047229
      3        1           0.005687128    0.008048480    0.013645879
      4        1           0.003780930    0.005352880   -0.008993764
      5        1          -0.014983155   -0.000013248    0.000047250
 -------------------------------------------------------------------
 Cartesian Forces:  Max     0.014983155 RMS     0.007657056
 Leave Link  716 at Sun May 29 19:29:55 2022, MaxMem=   262144000 cpu:               0.1 elap:               0.0
 (Enter /binaries/g16/l103.exe)

 GradGradGradGradGradGradGradGradGradGradGradGradGradGradGradGradGradGrad
 Berny optimization.
 FormGI is forming the generalized inverse of G from B-inverse, IUseBI=4.
 Internal  Forces:  Max     0.016831861 RMS     0.007819767
 Search for a local minimum.
 Step number   1 out of a maximum of   24 on scan point     1 out of    11
 All quantities printed in internal units (Hartrees-Bohrs-Radians)
 RMS Force = .69706D-02 SwitMx=.10000D-02 MixMth= 1
 Mixed Optimization -- RFO/linear search
 Second derivative matrix not updated -- first step.
 The second derivative matrix:
                          R1        R2        R3        R4        A1
           R1           0.37229
           R2           0.00000   0.37535
           R3           0.00000   0.00000   0.36611
           R4           0.00000   0.00000   0.00000   0.37230
           A1           0.00000   0.00000   0.00000   0.00000   0.16000
           A2           0.00000   0.00000   0.00000   0.00000   0.00000
           A3           0.00000   0.00000   0.00000   0.00000   0.00000
           A4           0.00000   0.00000   0.00000   0.00000   0.00000
           A5           0.00000   0.00000   0.00000   0.00000   0.00000
           A6           0.00000   0.00000   0.00000   0.00000   0.00000
           D1           0.00000   0.00000   0.00000   0.00000   0.00000
           D2           0.00000   0.00000   0.00000   0.00000   0.00000
           D3           0.00000   0.00000   0.00000   0.00000   0.00000
           D4           0.00000   0.00000   0.00000   0.00000   0.00000
                          A2        A3        A4        A5        A6
           A2           0.16000
           A3           0.00000   0.16000
           A4           0.00000   0.00000   0.16000
           A5           0.00000   0.00000   0.00000   0.16000
           A6           0.00000   0.00000   0.00000   0.00000   0.16000
           D1           0.00000   0.00000   0.00000   0.00000   0.00000
           D2           0.00000   0.00000   0.00000   0.00000   0.00000
           D3           0.00000   0.00000   0.00000   0.00000   0.00000
           D4           0.00000   0.00000   0.00000   0.00000   0.00000
                          D1        D2        D3        D4
           D1           0.00434
           D2           0.00000   0.00499
           D3           0.00000   0.00000   0.00499
           D4           0.00000   0.00000   0.00000   0.00499
 ITU=  0
     Eigenvalues ---    0.05257   0.05901   0.08731   0.16000   0.16000
     Eigenvalues ---    0.36611   0.37230   0.375351000.000001000.00000
     Eigenvalues --- 1000.000001000.000001000.000001000.00000
 RFO step:  Lambda=-1.68889906D-03 EMin= 5.25714373D-02
 Linear search not attempted -- first point.
 Iteration  1 RMS(Cart)=  0.01724743 RMS(Int)=  0.00001247
 Iteration  2 RMS(Cart)=  0.00000962 RMS(Int)=  0.00000019
 Iteration  3 RMS(Cart)=  0.00000000 RMS(Int)=  0.00000019
 Iteration  1 RMS(Cart)=  0.00000000 RMS(Int)=  0.00000000
 ITry= 1 IFail=0 DXMaxC= 3.74D-02 DCOld= 1.00D+10 DXMaxT= 3.00D-01 DXLimC= 3.00D+00 Rises=F
 Variable       Old X    -DE/DX   Delta X   Delta X   Delta X     New X
                                 (Linear)    (Quad)   (Total)
    R1        2.02202   0.01498   0.00000   0.00000   0.00000   2.02202
    R2        2.01747   0.01683   0.00000   0.04464   0.04464   2.06212
    R3        2.03137   0.01113   0.00000   0.03025   0.03025   2.06162
    R4        2.02201   0.01498   0.00000   0.04006   0.04006   2.06207
    A1        1.91140   0.00002   0.00000   0.00007   0.00007   1.91147
    A2        1.90898   0.00003   0.00000   0.00069   0.00069   1.90966
    A3        1.91066  -0.00005   0.00000   0.00014   0.00014   1.91081
    A4        1.91226  -0.00015   0.00000  -0.00164  -0.00164   1.91062
    A5        1.91146   0.00003   0.00000   0.00004   0.00004   1.91150
    A6        1.90904   0.00011   0.00000   0.00069   0.00069   1.90973
    D1       -2.09531   0.00004   0.00000   0.00049   0.00049  -2.09482
    D2        2.09586   0.00002   0.00000   0.00020   0.00020   2.09606
    D3       -2.09141  -0.00008   0.00000  -0.00135  -0.00135  -2.09276
    D4        2.09592  -0.00010   0.00000  -0.00155  -0.00155   2.09436
         Item               Value     Threshold  Converged?
 Maximum Force            0.016832     0.000450     NO 
 RMS     Force            0.006971     0.000300     NO 
 Maximum Displacement     0.037382     0.001800     NO 
 RMS     Displacement     0.017247     0.001200     NO 
 Predicted change in Energy=-8.482676D-04
 Lowest energy point so far.  Saving SCF results.
 GradGradGradGradGradGradGradGradGradGradGradGradGradGradGradGradGradGrad

 Leave Link  103 at Sun May 29 19:29:55 2022, MaxMem=   262144000 cpu:               0.0 elap:               0.0
 (Enter /binaries/g16/l202.exe)
                          Input orientation:                          
 ---------------------------------------------------------------------
 Center     Atomic      Atomic             Coordinates (Angstroms)
 Number     Number       Type             X           Y           Z
 ---------------------------------------------------------------------
      1          6           0        4.293219    3.654805   -0.001390
      2          1           0        4.649988    2.646030   -0.001114
      3          1           0        4.658145    4.170846    0.888162
      4          1           0        4.655730    4.167434   -0.893577
      5          1           0        3.202018    3.654885   -0.001081
 ---------------------------------------------------------------------
                    Distance matrix (angstroms):
                    1          2          3          4          5
     1  C    0.000000
     2  H    1.070006   0.000000
     3  H    1.091225   1.765203   0.000000
     4  H    1.090963   1.763858   1.781743   0.000000
     5  H    1.091200   1.764768   1.782491   1.781160   0.000000
 Stoichiometry    CH4
 Framework group  C1[X(CH4)]
 Deg. of freedom     9
 Full point group                 C1      NOp   1
 RotChk:  IX=1 Diff= 1.92D+00
 Largest Abelian subgroup         C1      NOp   1
 Largest concise Abelian subgroup C1      NOp   1
                         Standard orientation:                         
 ---------------------------------------------------------------------
 Center     Atomic      Atomic             Coordinates (Angstroms)
 Number     Number       Type             X           Y           Z
 ---------------------------------------------------------------------
      1          6           0       -0.000113    0.000110   -0.002120
      2          1           0        0.011050   -0.021868   -1.071842
      3          1           0       -0.988387    0.304893    0.346007
      4          1           0        0.230654   -0.994009    0.383463
      5          1           0        0.747360    0.710322    0.355095
 ---------------------------------------------------------------------
 Rotational constants (GHZ):         160.3222705         160.1824095         157.9471796
 Leave Link  202 at Sun May 29 19:29:55 2022, MaxMem=   262144000 cpu:               0.0 elap:               0.0
 (Enter /binaries/g16/l301.exe)
 Standard basis: def2SVP (5D, 7F)
 Ernie: Thresh=  0.10000D-02 Tol=  0.10000D-05 Strict=F.
 There are    35 symmetry adapted cartesian basis functions of A   symmetry.
 There are    34 symmetry adapted basis functions of A   symmetry.
    34 basis functions,    53 primitive gaussians,    35 cartesian basis functions
     5 alpha electrons        5 beta electrons
       nuclear repulsion energy        13.4876164086 Hartrees.
 IExCor=    0 DFT=F Ex=HF Corr=None ExCW=0 ScaHFX=  1.000000
 ScaDFX=  1.000000  1.000000  1.000000  1.000000 ScalE2=  1.000000  1.000000
 IRadAn=      5 IRanWt=     -1 IRanGd=            0 ICorTp=0 IEmpDi=  4
 NAtoms=    5 NActive=    5 NUniq=    5 SFac= 1.00D+00 NAtFMM=   60 NAOKFM=F Big=F
 Integral buffers will be    131072 words long.
 Raffenetti 1 integral format.
 Two-electron integral symmetry is turned on.
 Leave Link  301 at Sun May 29 19:29:55 2022, MaxMem=   262144000 cpu:               0.1 elap:               0.0
 (Enter /binaries/g16/l302.exe)
 NPDir=0 NMtPBC=     1 NCelOv=     1 NCel=       1 NClECP=     1 NCelD=      1
         NCelK=      1 NCelE2=     1 NClLst=     1 CellRange=     0.0.
 One-electron integrals computed using PRISM.
 One-electron integral symmetry used in STVInt
   1 Symmetry operations used in ECPInt.
 ECPInt:  NShTT=     171 NPrTT=     553 LenC2=     172 LenP2D=     540.
 LDataN:  DoStor=T MaxTD1= 4 Len=   56
 NBasis=    34 RedAO= T EigKep=  1.37D-02  NBF=    34
 NBsUse=    34 1.00D-06 EigRej= -1.00D+00 NBFU=    34
 Leave Link  302 at Sun May 29 19:29:55 2022, MaxMem=   262144000 cpu:               0.3 elap:               0.1
 (Enter /binaries/g16/l303.exe)
 DipDrv:  MaxL=1.
 Leave Link  303 at Sun May 29 19:29:55 2022, MaxMem=   262144000 cpu:               0.1 elap:               0.0
 (Enter /binaries/g16/l401.exe)
 Initial guess from the checkpoint file:  "in.chk"
 B after Tr=     0.000000    0.000000    0.000000
         Rot=    0.734665   -0.299643    0.406267    0.453242 Ang= -85.44 deg.
 Guess basis will be translated and rotated to current coordinates.
 JPrj=2 DoOrth=T DoCkMO=T.
 Generating alternative initial guess.
 ExpMin= 1.22D-01 ExpMax= 1.24D+03 ExpMxC= 1.86D+02 IAcc=3 IRadAn=         5 AccDes= 0.00D+00
 Harris functional with IExCor=  205 and IRadAn=       5 diagonalized for initial guess.
 HarFok:  IExCor=  205 AccDes= 0.00D+00 IRadAn=         5 IDoV= 1 UseB2=F ITyADJ=14
 ICtDFT=  3500011 ScaDFX=  1.000000  1.000000  1.000000  1.000000
 FoFCou: FMM=F IPFlag=           0 FMFlag=      100000 FMFlg1=           0
         NFxFlg=           0 DoJE=T BraDBF=F KetDBF=T FulRan=T
         wScrn=  0.000000 ICntrl=       500 IOpCl=  0 I1Cent=   200000004 NGrid=           0
         NMat0=    1 NMatS0=      1 NMatT0=    0 NMatD0=    1 NMtDS0=    0 NMtDT0=    0
 Petite list used in FoFCou.
 Harris En= -40.3415099903625    
 Leave Link  401 at Sun May 29 19:29:55 2022, MaxMem=   262144000 cpu:               0.4 elap:               0.1
 (Enter /binaries/g16/l502.exe)
 Keep R1 ints in memory in canonical form, NReq=1009981.
 FoFCou: FMM=F IPFlag=           0 FMFlag=           0 FMFlg1=           0
         NFxFlg=           0 DoJE=F BraDBF=F KetDBF=F FulRan=T
         wScrn=  0.000000 ICntrl=       600 IOpCl=  0 I1Cent=           0 NGrid=           0
         NMat0=    1 NMatS0=    595 NMatT0=    0 NMatD0=    1 NMtDS0=    0 NMtDT0=    0
 Symmetry not used in FoFCou.
 Two-electron integral symmetry not used.
 Closed shell SCF:
 Using DIIS extrapolation, IDIIS=  1040.
 NGot=   262144000 LenX=   261963332 LenY=   261961666
 Requested convergence on RMS density matrix=1.00D-08 within 128 cycles.
 Requested convergence on MAX density matrix=1.00D-06.
 Requested convergence on             energy=1.00D-06.
 No special actions if energy rises.

 Cycle   1  Pass 1  IDiag  1:
 E= -40.1686958619311    
 DIIS: error= 2.69D-03 at cycle   1 NSaved=   1.
 NSaved= 1 IEnMin= 1 EnMin= -40.1686958619311     IErMin= 1 ErrMin= 2.69D-03
 ErrMax= 2.69D-03  0.00D+00 EMaxC= 1.00D-01 BMatC= 1.64D-04 BMatP= 1.64D-04
 IDIUse=3 WtCom= 9.73D-01 WtEn= 2.69D-02
 Coeff-Com:  0.100D+01
 Coeff-En:   0.100D+01
 Coeff:      0.100D+01
 Gap=     0.984 Goal=   None    Shift=    0.000
 GapD=    0.984 DampG=2.000 DampE=1.000 DampFc=2.0000 IDamp=-1.
 RMSDP=4.71D-04 MaxDP=4.46D-03              OVMax= 4.91D-03

 Cycle   2  Pass 1  IDiag  1:
 E= -40.1688878310862     Delta-E=       -0.000191969155 Rises=F Damp=F
 DIIS: error= 7.59D-04 at cycle   2 NSaved=   2.
 NSaved= 2 IEnMin= 2 EnMin= -40.1688878310862     IErMin= 2 ErrMin= 7.59D-04
 ErrMax= 7.59D-04  0.00D+00 EMaxC= 1.00D-01 BMatC= 1.09D-05 BMatP= 1.64D-04
 IDIUse=3 WtCom= 9.92D-01 WtEn= 7.59D-03
 Coeff-Com: -0.240D-01 0.102D+01
 Coeff-En:   0.000D+00 0.100D+01
 Coeff:     -0.238D-01 0.102D+01
 Gap=     0.732 Goal=   None    Shift=    0.000
 RMSDP=1.05D-04 MaxDP=1.76D-03 DE=-1.92D-04 OVMax= 1.58D-03

 Cycle   3  Pass 1  IDiag  1:
 E= -40.1689002589735     Delta-E=       -0.000012427887 Rises=F Damp=F
 DIIS: error= 2.11D-04 at cycle   3 NSaved=   3.
 NSaved= 3 IEnMin= 3 EnMin= -40.1689002589735     IErMin= 3 ErrMin= 2.11D-04
 ErrMax= 2.11D-04  0.00D+00 EMaxC= 1.00D-01 BMatC= 1.14D-06 BMatP= 1.09D-05
 IDIUse=3 WtCom= 9.98D-01 WtEn= 2.11D-03
 Coeff-Com: -0.558D-01 0.183D+00 0.873D+00
 Coeff-En:   0.000D+00 0.000D+00 0.100D+01
 Coeff:     -0.557D-01 0.183D+00 0.873D+00
 Gap=     0.732 Goal=   None    Shift=    0.000
 RMSDP=3.27D-05 MaxDP=4.11D-04 DE=-1.24D-05 OVMax= 5.14D-04

 Cycle   4  Pass 1  IDiag  1:
 E= -40.1689018219275     Delta-E=       -0.000001562954 Rises=F Damp=F
 DIIS: error= 4.20D-05 at cycle   4 NSaved=   4.
 NSaved= 4 IEnMin= 4 EnMin= -40.1689018219275     IErMin= 4 ErrMin= 4.20D-05
 ErrMax= 4.20D-05  0.00D+00 EMaxC= 1.00D-01 BMatC= 3.24D-08 BMatP= 1.14D-06
 IDIUse=1 WtCom= 1.00D+00 WtEn= 0.00D+00
 Coeff-Com:  0.104D-01-0.674D-01-0.180D+00 0.124D+01
 Coeff:      0.104D-01-0.674D-01-0.180D+00 0.124D+01
 Gap=     0.732 Goal=   None    Shift=    0.000
 RMSDP=1.14D-05 MaxDP=1.13D-04 DE=-1.56D-06 OVMax= 1.84D-04

 Cycle   5  Pass 1  IDiag  1:
 E= -40.1689019094773     Delta-E=       -0.000000087550 Rises=F Damp=F
 DIIS: error= 6.09D-06 at cycle   5 NSaved=   5.
 NSaved= 5 IEnMin= 5 EnMin= -40.1689019094773     IErMin= 5 ErrMin= 6.09D-06
 ErrMax= 6.09D-06  0.00D+00 EMaxC= 1.00D-01 BMatC= 1.00D-09 BMatP= 3.24D-08
 IDIUse=1 WtCom= 1.00D+00 WtEn= 0.00D+00
 Coeff-Com:  0.824D-03 0.164D-02-0.133D-01-0.141D+00 0.115D+01
 Coeff:      0.824D-03 0.164D-02-0.133D-01-0.141D+00 0.115D+01
 Gap=     0.732 Goal=   None    Shift=    0.000
 RMSDP=2.54D-06 MaxDP=2.59D-05 DE=-8.75D-08 OVMax= 3.45D-05

 Cycle   6  Pass 1  IDiag  1:
 E= -40.1689019121250     Delta-E=       -0.000000002648 Rises=F Damp=F
 DIIS: error= 9.81D-07 at cycle   6 NSaved=   6.
 NSaved= 6 IEnMin= 6 EnMin= -40.1689019121250     IErMin= 6 ErrMin= 9.81D-07
 ErrMax= 9.81D-07  0.00D+00 EMaxC= 1.00D-01 BMatC= 2.30D-11 BMatP= 1.00D-09
 IDIUse=1 WtCom= 1.00D+00 WtEn= 0.00D+00
 Coeff-Com: -0.439D-03 0.179D-02 0.777D-02-0.158D-01-0.179D+00 0.119D+01
 Coeff:     -0.439D-03 0.179D-02 0.777D-02-0.158D-01-0.179D+00 0.119D+01
 Gap=     0.732 Goal=   None    Shift=    0.000
 RMSDP=4.04D-07 MaxDP=4.06D-06 DE=-2.65D-09 OVMax= 5.16D-06

 Cycle   7  Pass 1  IDiag  1:
 E= -40.1689019121843     Delta-E=       -0.000000000059 Rises=F Damp=F
 DIIS: error= 9.89D-08 at cycle   7 NSaved=   7.
 NSaved= 7 IEnMin= 7 EnMin= -40.1689019121843     IErMin= 7 ErrMin= 9.89D-08
 ErrMax= 9.89D-08  0.00D+00 EMaxC= 1.00D-01 BMatC= 3.27D-13 BMatP= 2.30D-11
 IDIUse=1 WtCom= 1.00D+00 WtEn= 0.00D+00
 Coeff-Com:  0.762D-04-0.355D-03-0.138D-02 0.399D-02 0.274D-01-0.272D+00
 Coeff-Com:  0.124D+01
 Coeff:      0.762D-04-0.355D-03-0.138D-02 0.399D-02 0.274D-01-0.272D+00
 Coeff:      0.124D+01
 Gap=     0.732 Goal=   None    Shift=    0.000
 RMSDP=3.89D-08 MaxDP=2.98D-07 DE=-5.93D-11 OVMax= 4.58D-07

 Cycle   8  Pass 1  IDiag  1:
 E= -40.1689019121851     Delta-E=       -0.000000000001 Rises=F Damp=F
 DIIS: error= 1.22D-08 at cycle   8 NSaved=   8.
 NSaved= 8 IEnMin= 8 EnMin= -40.1689019121851     IErMin= 8 ErrMin= 1.22D-08
 ErrMax= 1.22D-08  0.00D+00 EMaxC= 1.00D-01 BMatC= 4.05D-15 BMatP= 3.27D-13
 IDIUse=1 WtCom= 1.00D+00 WtEn= 0.00D+00
 Coeff-Com: -0.126D-04 0.618D-04 0.242D-03-0.852D-03-0.334D-02 0.449D-01
 Coeff-Com: -0.268D+00 0.123D+01
 Coeff:     -0.126D-04 0.618D-04 0.242D-03-0.852D-03-0.334D-02 0.449D-01
 Coeff:     -0.268D+00 0.123D+01
 Gap=     0.732 Goal=   None    Shift=    0.000
 RMSDP=5.33D-09 MaxDP=3.96D-08 DE=-8.24D-13 OVMax= 5.11D-08

 SCF Done:  E(RHF) =  -40.1689019122     A.U. after    8 cycles
            NFock=  8  Conv=0.53D-08     -V/T= 2.0069
 KE= 3.989262850179D+01 PE=-1.196285035839D+02 EE= 2.607935676141D+01
 Leave Link  502 at Sun May 29 19:29:55 2022, MaxMem=   262144000 cpu:               0.3 elap:               0.1
 (Enter /binaries/g16/l701.exe)
 ... and contract with generalized density number  0.
 Compute integral first derivatives.
   1 Symmetry operations used in ECPInt.
 ECPInt:  NShTT=     171 NPrTT=     553 LenC2=     172 LenP2D=     540.
 LDataN:  DoStor=T MaxTD1= 5 Len=  102
 Leave Link  701 at Sun May 29 19:29:55 2022, MaxMem=   262144000 cpu:               0.2 elap:               0.1
 (Enter /binaries/g16/l702.exe)
 L702 exits ... SP integral derivatives will be done elsewhere.
 Leave Link  702 at Sun May 29 19:29:55 2022, MaxMem=   262144000 cpu:               0.1 elap:               0.0
 (Enter /binaries/g16/l703.exe)
 Integral derivatives from FoFJK, PRISM(SPDF).
 Compute integral first derivatives, UseDBF=F ICtDFT=           0.
 Calling FoFJK, ICntrl=      2127 FMM=F ISym2X=0 I1Cent= 0 IOpClX= 0 NMat=1 NMatS=1 NMatT=0.
 FoFJK:  IHMeth= 1 ICntrl=    2127 DoSepK=F KAlg= 0 I1Cent=           0 FoldK=F
 IRaf=         0 NMat=       1 IRICut=       1 DoRegI=T DoRafI=F ISym2E= 0 IDoP0=0 IntGTp=1.
 FoFCou: FMM=F IPFlag=           0 FMFlag=      100000 FMFlg1=         800
         NFxFlg=           0 DoJE=F BraDBF=F KetDBF=F FulRan=T
         wScrn=  0.000000 ICntrl=      2127 IOpCl=  0 I1Cent=           0 NGrid=           0
         NMat0=    1 NMatS0=      1 NMatT0=    0 NMatD0=    1 NMtDS0=    0 NMtDT0=    0
 Symmetry not used in FoFCou.
 Leave Link  703 at Sun May 29 19:29:55 2022, MaxMem=   262144000 cpu:               0.3 elap:               0.1
 (Enter /binaries/g16/l716.exe)
 Dipole        = 2.44852453D-04-3.86722585D-04-5.82802822D-03
 ***** Axes restored to original set *****
 -------------------------------------------------------------------
 Center     Atomic                   Forces (Hartrees/Bohr)
 Number     Number              X              Y              Z
 -------------------------------------------------------------------
      1        6          -0.005015692    0.014036299   -0.000097971
      2        1           0.004933251   -0.014005008    0.000117086
      3        1          -0.000530251   -0.000269765   -0.000908960
      4        1          -0.000389588   -0.000065065    0.000783168
      5        1           0.001002280    0.000303539    0.000106676
 -------------------------------------------------------------------
 Cartesian Forces:  Max     0.014036299 RMS     0.005451195
 Leave Link  716 at Sun May 29 19:29:55 2022, MaxMem=   262144000 cpu:               0.1 elap:               0.0
 (Enter /binaries/g16/l103.exe)

 GradGradGradGradGradGradGradGradGradGradGradGradGradGradGradGradGradGrad
 Berny optimization.
 Using GEDIIS/GDIIS optimizer.
 FormGI is forming the generalized inverse of G from B-inverse, IUseBI=4.
 Internal  Forces:  Max     0.014848493 RMS     0.003995597
 Search for a local minimum.
 Step number   2 out of a maximum of   24 on scan point     1 out of    11
 All quantities printed in internal units (Hartrees-Bohrs-Radians)
 RMS Force = .48273D-03 SwitMx=.10000D-02 MixMth= 2
 Mixed Optimization -- En-DIIS/RFO-DIIS
 Update second derivatives using D2CorX and points    1    2
 DE= -7.72D-04 DEPred=-8.48D-04 R= 9.10D-01
 TightC=F SS=  1.41D+00  RLast= 6.72D-02 DXNew= 5.0454D-01 2.0172D-01
 Trust test= 9.10D-01 RLast= 6.72D-02 DXMaxT set to 3.00D-01
 The second derivative matrix:
                          R1        R2        R3        R4        A1
           R1           0.37230
           R2           0.00131   0.38599
           R3           0.00088   0.00813   0.37221
           R4           0.00117   0.01018   0.00771   0.38200
           A1          -0.00000  -0.00042  -0.00028  -0.00038   0.16000
           A2          -0.00001  -0.00229  -0.00152  -0.00204   0.00000
           A3          -0.00002  -0.00264  -0.00176  -0.00236   0.00000
           A4          -0.00001   0.00141   0.00093   0.00125   0.00000
           A5           0.00002   0.00277   0.00185   0.00248  -0.00000
           A6           0.00002   0.00116   0.00078   0.00104  -0.00000
           D1           0.00001   0.00181   0.00121   0.00162  -0.00000
           D2          -0.00000  -0.00012  -0.00008  -0.00011   0.00000
           D3           0.00001   0.00161   0.00108   0.00144  -0.00000
           D4           0.00001   0.00174   0.00116   0.00155  -0.00000
                          A2        A3        A4        A5        A6
           A2           0.16000
           A3           0.00001   0.16003
           A4           0.00003   0.00002   0.15997
           A5          -0.00002  -0.00004  -0.00002   0.16005
           A6          -0.00002  -0.00003   0.00000   0.00004   0.16002
           D1          -0.00001  -0.00002  -0.00001   0.00003   0.00002
           D2           0.00000   0.00000   0.00000  -0.00000  -0.00000
           D3          -0.00001  -0.00002  -0.00001   0.00002   0.00002
           D4          -0.00001  -0.00002  -0.00001   0.00003   0.00002
                          D1        D2        D3        D4
           D1           0.00436
           D2          -0.00000   0.00499
           D3           0.00002  -0.00000   0.00501
           D4           0.00002  -0.00000   0.00001   0.00501
 ITU=  1  0
 Use linear search instead of GDIIS.
     Eigenvalues ---    0.05256   0.05888   0.08739   0.16000   0.16002
     Eigenvalues ---    0.36747   0.37370   0.399241000.000001000.00000
     Eigenvalues --- 1000.000001000.000001000.000001000.00000
 RFO step:  Lambda=-3.73356481D-06 EMin= 5.25562498D-02
 Quartic linear search produced a step of -0.06477.
 Iteration  1 RMS(Cart)=  0.00187007 RMS(Int)=  0.00000336
 Iteration  2 RMS(Cart)=  0.00000191 RMS(Int)=  0.00000256
 Iteration  3 RMS(Cart)=  0.00000000 RMS(Int)=  0.00000256
 Iteration  1 RMS(Cart)=  0.00000000 RMS(Int)=  0.00000000
 ITry= 1 IFail=0 DXMaxC= 3.35D-03 DCOld= 1.00D+10 DXMaxT= 3.00D-01 DXLimC= 3.00D+00 Rises=F
 Variable       Old X    -DE/DX   Delta X   Delta X   Delta X     New X
                                 (Linear)    (Quad)   (Total)
    R1        2.02202   0.01485  -0.00000   0.00000   0.00000   2.02202
    R2        2.06212  -0.00105  -0.00289   0.00023  -0.00266   2.05946
    R3        2.06162  -0.00080  -0.00196  -0.00012  -0.00208   2.05954
    R4        2.06207  -0.00100  -0.00260   0.00003  -0.00257   2.05950
    A1        1.91147   0.00005  -0.00000   0.00114   0.00113   1.91261
    A2        1.90966   0.00015  -0.00004   0.00263   0.00259   1.91225
    A3        1.91081   0.00020  -0.00001   0.00169   0.00168   1.91249
    A4        1.91062  -0.00003   0.00011  -0.00182  -0.00172   1.90890
    A5        1.91150  -0.00025  -0.00000  -0.00256  -0.00256   1.90894
    A6        1.90973  -0.00012  -0.00004  -0.00108  -0.00113   1.90860
    D1       -2.09482  -0.00014  -0.00003  -0.00189  -0.00192  -2.09674
    D2        2.09606   0.00003  -0.00001   0.00086   0.00085   2.09691
    D3       -2.09276  -0.00023   0.00009  -0.00359  -0.00350  -2.09626
    D4        2.09436  -0.00026   0.00010  -0.00445  -0.00435   2.09001
         Item               Value     Threshold  Converged?
 Maximum Force            0.001046     0.000450     NO 
 RMS     Force            0.000483     0.000300     NO 
 Maximum Displacement     0.003354     0.001800     NO 
 RMS     Displacement     0.001871     0.001200     NO 
 Predicted change in Energy=-5.265171D-06
 Lowest energy point so far.  Saving SCF results.
 GradGradGradGradGradGradGradGradGradGradGradGradGradGradGradGradGradGrad

 Leave Link  103 at Sun May 29 19:29:55 2022, MaxMem=   262144000 cpu:               0.0 elap:               0.0
 (Enter /binaries/g16/l202.exe)
                          Input orientation:                          
 ---------------------------------------------------------------------
 Center     Atomic      Atomic             Coordinates (Angstroms)
 Number     Number       Type             X           Y           Z
 ---------------------------------------------------------------------
      1          6           0        4.293525    3.654010   -0.001701
      2          1           0        4.650208    2.645204   -0.000745
      3          1           0        4.656811    4.170758    0.886387
      4          1           0        4.654871    4.168012   -0.892222
      5          1           0        3.203685    3.656016   -0.000719
 ---------------------------------------------------------------------
                    Distance matrix (angstroms):
                    1          2          3          4          5
     1  C    0.000000
     2  H    1.070006   0.000000
     3  H    1.089819   1.764755   0.000000
     4  H    1.089860   1.764566   1.778612   0.000000
     5  H    1.089843   1.764701   1.778621   1.778442   0.000000
 Stoichiometry    CH4
 Framework group  C1[X(CH4)]
 Deg. of freedom     9
 Full point group                 C1      NOp   1
 RotChk:  IX=1 Diff= 3.85D-01
 Largest Abelian subgroup         C1      NOp   1
 Largest concise Abelian subgroup C1      NOp   1
                         Standard orientation:                         
 ---------------------------------------------------------------------
 Center     Atomic      Atomic             Coordinates (Angstroms)
 Number     Number       Type             X           Y           Z
 ---------------------------------------------------------------------
      1          6           0       -0.000038    0.000010   -0.002542
      2          1           0        0.002240   -0.004282   -1.072537
      3          1           0       -1.027354    0.023281    0.360480
      4          1           0        0.493719   -0.898541    0.367061
      5          1           0        0.531623    0.879484    0.360251
 ---------------------------------------------------------------------
 Rotational constants (GHZ):         160.3995527         160.3783564         158.5242589
 Leave Link  202 at Sun May 29 19:29:55 2022, MaxMem=   262144000 cpu:               0.0 elap:               0.0
 (Enter /binaries/g16/l301.exe)
 Standard basis: def2SVP (5D, 7F)
 Ernie: Thresh=  0.10000D-02 Tol=  0.10000D-05 Strict=F.
 There are    35 symmetry adapted cartesian basis functions of A   symmetry.
 There are    34 symmetry adapted basis functions of A   symmetry.
    34 basis functions,    53 primitive gaussians,    35 cartesian basis functions
     5 alpha electrons        5 beta electrons
       nuclear repulsion energy        13.4995293979 Hartrees.
 IExCor=    0 DFT=F Ex=HF Corr=None ExCW=0 ScaHFX=  1.000000
 ScaDFX=  1.000000  1.000000  1.000000  1.000000 ScalE2=  1.000000  1.000000
 IRadAn=      5 IRanWt=     -1 IRanGd=            0 ICorTp=0 IEmpDi=  4
 NAtoms=    5 NActive=    5 NUniq=    5 SFac= 1.00D+00 NAtFMM=   60 NAOKFM=F Big=F
 Integral buffers will be    131072 words long.
 Raffenetti 1 integral format.
 Two-electron integral symmetry is turned on.
 Leave Link  301 at Sun May 29 19:29:55 2022, MaxMem=   262144000 cpu:               0.1 elap:               0.0
 (Enter /binaries/g16/l302.exe)
 NPDir=0 NMtPBC=     1 NCelOv=     1 NCel=       1 NClECP=     1 NCelD=      1
         NCelK=      1 NCelE2=     1 NClLst=     1 CellRange=     0.0.
 One-electron integrals computed using PRISM.
 One-electron integral symmetry used in STVInt
   1 Symmetry operations used in ECPInt.
 ECPInt:  NShTT=     171 NPrTT=     553 LenC2=     172 LenP2D=     540.
 LDataN:  DoStor=T MaxTD1= 4 Len=   56
 NBasis=    34 RedAO= T EigKep=  1.37D-02  NBF=    34
 NBsUse=    34 1.00D-06 EigRej= -1.00D+00 NBFU=    34
 Leave Link  302 at Sun May 29 19:29:55 2022, MaxMem=   262144000 cpu:               0.2 elap:               0.1
 (Enter /binaries/g16/l303.exe)
 DipDrv:  MaxL=1.
 Leave Link  303 at Sun May 29 19:29:55 2022, MaxMem=   262144000 cpu:               0.1 elap:               0.0
 (Enter /binaries/g16/l401.exe)
 Initial guess from the checkpoint file:  "in.chk"
 B after Tr=    -0.000000   -0.000000   -0.000000
         Rot=    0.990680   -0.007101   -0.005562   -0.135913 Ang= -15.66 deg.
 Guess basis will be translated and rotated to current coordinates.
 JPrj=2 DoOrth=T DoCkMO=T.
 Leave Link  401 at Sun May 29 19:29:55 2022, MaxMem=   262144000 cpu:               0.2 elap:               0.0
 (Enter /binaries/g16/l502.exe)
 Keep R1 ints in memory in canonical form, NReq=1009981.
 FoFCou: FMM=F IPFlag=           0 FMFlag=           0 FMFlg1=           0
         NFxFlg=           0 DoJE=F BraDBF=F KetDBF=F FulRan=T
         wScrn=  0.000000 ICntrl=       600 IOpCl=  0 I1Cent=           0 NGrid=           0
         NMat0=    1 NMatS0=    595 NMatT0=    0 NMatD0=    1 NMtDS0=    0 NMtDT0=    0
 Symmetry not used in FoFCou.
 Two-electron integral symmetry not used.
 Closed shell SCF:
 Using DIIS extrapolation, IDIIS=  1040.
 NGot=   262144000 LenX=   261963332 LenY=   261961666
 Requested convergence on RMS density matrix=1.00D-08 within 128 cycles.
 Requested convergence on MAX density matrix=1.00D-06.
 Requested convergence on             energy=1.00D-06.
 No special actions if energy rises.

 Cycle   1  Pass 1  IDiag  1:
 E= -40.1689064736929    
 DIIS: error= 1.69D-04 at cycle   1 NSaved=   1.
 NSaved= 1 IEnMin= 1 EnMin= -40.1689064736929     IErMin= 1 ErrMin= 1.69D-04
 ErrMax= 1.69D-04  0.00D+00 EMaxC= 1.00D-01 BMatC= 1.08D-06 BMatP= 1.08D-06
 IDIUse=3 WtCom= 9.98D-01 WtEn= 1.69D-03
 Coeff-Com:  0.100D+01
 Coeff-En:   0.100D+01
 Coeff:      0.100D+01
 Gap=     0.979 Goal=   None    Shift=    0.000
 RMSDP=3.60D-05 MaxDP=2.73D-04              OVMax= 3.64D-04

 Cycle   2  Pass 1  IDiag  1:
 E= -40.1689076300932     Delta-E=       -0.000001156400 Rises=F Damp=F
 DIIS: error= 4.85D-05 at cycle   2 NSaved=   2.
 NSaved= 2 IEnMin= 2 EnMin= -40.1689076300932     IErMin= 2 ErrMin= 4.85D-05
 ErrMax= 4.85D-05  0.00D+00 EMaxC= 1.00D-01 BMatC= 5.00D-08 BMatP= 1.08D-06
 IDIUse=1 WtCom= 1.00D+00 WtEn= 0.00D+00
 Coeff-Com: -0.606D-01 0.106D+01
 Coeff:     -0.606D-01 0.106D+01
 Gap=     0.732 Goal=   None    Shift=    0.000
 RMSDP=7.52D-06 MaxDP=1.14D-04 DE=-1.16D-06 OVMax= 9.20D-05

 Cycle   3  Pass 1  IDiag  1:
 E= -40.1689076841559     Delta-E=       -0.000000054063 Rises=F Damp=F
 DIIS: error= 1.15D-05 at cycle   3 NSaved=   3.
 NSaved= 3 IEnMin= 3 EnMin= -40.1689076841559     IErMin= 3 ErrMin= 1.15D-05
 ErrMax= 1.15D-05  0.00D+00 EMaxC= 1.00D-01 BMatC= 5.07D-09 BMatP= 5.00D-08
 IDIUse=1 WtCom= 1.00D+00 WtEn= 0.00D+00
 Coeff-Com: -0.471D-01 0.219D+00 0.828D+00
 Coeff:     -0.471D-01 0.219D+00 0.828D+00
 Gap=     0.732 Goal=   None    Shift=    0.000
 RMSDP=1.93D-06 MaxDP=2.01D-05 DE=-5.41D-08 OVMax= 2.75D-05

 Cycle   4  Pass 1  IDiag  1:
 E= -40.1689076899747     Delta-E=       -0.000000005819 Rises=F Damp=F
 DIIS: error= 1.50D-06 at cycle   4 NSaved=   4.
 NSaved= 4 IEnMin= 4 EnMin= -40.1689076899747     IErMin= 4 ErrMin= 1.50D-06
 ErrMax= 1.50D-06  0.00D+00 EMaxC= 1.00D-01 BMatC= 7.49D-11 BMatP= 5.07D-09
 IDIUse=1 WtCom= 1.00D+00 WtEn= 0.00D+00
 Coeff-Com:  0.664D-02-0.544D-01-0.106D+00 0.115D+01
 Coeff:      0.664D-02-0.544D-01-0.106D+00 0.115D+01
 Gap=     0.732 Goal=   None    Shift=    0.000
 RMSDP=4.09D-07 MaxDP=3.30D-06 DE=-5.82D-09 OVMax= 6.47D-06

 Cycle   5  Pass 1  IDiag  1:
 E= -40.1689076901259     Delta-E=       -0.000000000151 Rises=F Damp=F
 DIIS: error= 3.43D-07 at cycle   5 NSaved=   5.
 NSaved= 5 IEnMin= 5 EnMin= -40.1689076901259     IErMin= 5 ErrMin= 3.43D-07
 ErrMax= 3.43D-07  0.00D+00 EMaxC= 1.00D-01 BMatC= 2.01D-12 BMatP= 7.49D-11
 IDIUse=1 WtCom= 1.00D+00 WtEn= 0.00D+00
 Coeff-Com:  0.103D-02-0.226D-02-0.182D-01-0.686D-01 0.109D+01
 Coeff:      0.103D-02-0.226D-02-0.182D-01-0.686D-01 0.109D+01
 Gap=     0.732 Goal=   None    Shift=    0.000
 RMSDP=9.22D-08 MaxDP=7.85D-07 DE=-1.51D-10 OVMax= 1.33D-06

 Cycle   6  Pass 1  IDiag  1:
 E= -40.1689076901301     Delta-E=       -0.000000000004 Rises=F Damp=F
 DIIS: error= 6.64D-08 at cycle   6 NSaved=   6.
 NSaved= 6 IEnMin= 6 EnMin= -40.1689076901301     IErMin= 6 ErrMin= 6.64D-08
 ErrMax= 6.64D-08  0.00D+00 EMaxC= 1.00D-01 BMatC= 5.89D-14 BMatP= 2.01D-12
 IDIUse=1 WtCom= 1.00D+00 WtEn= 0.00D+00
 Coeff-Com: -0.320D-03 0.143D-02 0.552D-02-0.589D-02-0.257D+00 0.126D+01
 Coeff:     -0.320D-03 0.143D-02 0.552D-02-0.589D-02-0.257D+00 0.126D+01
 Gap=     0.732 Goal=   None    Shift=    0.000
 RMSDP=2.36D-08 MaxDP=2.21D-07 DE=-4.23D-12 OVMax= 3.07D-07

 Cycle   7  Pass 1  IDiag  1:
 E= -40.1689076901301     Delta-E=       -0.000000000000 Rises=F Damp=F
 DIIS: error= 6.13D-09 at cycle   7 NSaved=   7.
 NSaved= 7 IEnMin= 7 EnMin= -40.1689076901301     IErMin= 7 ErrMin= 6.13D-09
 ErrMax= 6.13D-09  0.00D+00 EMaxC= 1.00D-01 BMatC= 1.07D-15 BMatP= 5.89D-14
 IDIUse=1 WtCom= 1.00D+00 WtEn= 0.00D+00
 Coeff-Com:  0.655D-04-0.338D-03-0.115D-02 0.350D-02 0.378D-01-0.296D+00
 Coeff-Com:  0.126D+01
 Coeff:      0.655D-04-0.338D-03-0.115D-02 0.350D-02 0.378D-01-0.296D+00
 Coeff:      0.126D+01
 Gap=     0.732 Goal=   None    Shift=    0.000
 RMSDP=3.02D-09 MaxDP=2.86D-08 DE=-4.26D-14 OVMax= 3.90D-08

 SCF Done:  E(RHF) =  -40.1689076901     A.U. after    7 cycles
            NFock=  7  Conv=0.30D-08     -V/T= 2.0068
 KE= 3.989784515650D+01 PE=-1.196561631376D+02 EE= 2.608988089307D+01
 Leave Link  502 at Sun May 29 19:29:55 2022, MaxMem=   262144000 cpu:               0.3 elap:               0.1
 (Enter /binaries/g16/l701.exe)
 ... and contract with generalized density number  0.
 Compute integral first derivatives.
   1 Symmetry operations used in ECPInt.
 ECPInt:  NShTT=     171 NPrTT=     553 LenC2=     172 LenP2D=     540.
 LDataN:  DoStor=T MaxTD1= 5 Len=  102
 Leave Link  701 at Sun May 29 19:29:56 2022, MaxMem=   262144000 cpu:               0.3 elap:               0.1
 (Enter /binaries/g16/l702.exe)
 L702 exits ... SP integral derivatives will be done elsewhere.
 Leave Link  702 at Sun May 29 19:29:56 2022, MaxMem=   262144000 cpu:               0.1 elap:               0.0
 (Enter /binaries/g16/l703.exe)
 Integral derivatives from FoFJK, PRISM(SPDF).
 Compute integral first derivatives, UseDBF=F ICtDFT=           0.
 Calling FoFJK, ICntrl=      2127 FMM=F ISym2X=0 I1Cent= 0 IOpClX= 0 NMat=1 NMatS=1 NMatT=0.
 FoFJK:  IHMeth= 1 ICntrl=    2127 DoSepK=F KAlg= 0 I1Cent=           0 FoldK=F
 IRaf=         0 NMat=       1 IRICut=       1 DoRegI=T DoRafI=F ISym2E= 0 IDoP0=0 IntGTp=1.
 FoFCou: FMM=F IPFlag=           0 FMFlag=      100000 FMFlg1=         800
         NFxFlg=           0 DoJE=F BraDBF=F KetDBF=F FulRan=T
         wScrn=  0.000000 ICntrl=      2127 IOpCl=  0 I1Cent=           0 NGrid=           0
         NMat0=    1 NMatS0=      1 NMatT0=    0 NMatD0=    1 NMtDS0=    0 NMtDT0=    0
 Symmetry not used in FoFCou.
 Leave Link  703 at Sun May 29 19:29:56 2022, MaxMem=   262144000 cpu:               0.3 elap:               0.1
 (Enter /binaries/g16/l716.exe)
 Dipole        = 4.79579908D-05-3.55946523D-05-4.78028333D-03
 ***** Axes restored to original set *****
 -------------------------------------------------------------------
 Center     Atomic                   Forces (Hartrees/Bohr)
 Number     Number              X              Y              Z
 -------------------------------------------------------------------
      1        6          -0.004882633    0.013787039   -0.000081381
      2        1           0.004919047   -0.013926123    0.000034289
      3        1          -0.000020933    0.000043249   -0.000005915
      4        1          -0.000017025    0.000051003    0.000033737
      5        1           0.000001543    0.000044832    0.000019270
 -------------------------------------------------------------------
 Cartesian Forces:  Max     0.013926123 RMS     0.005367017
 Leave Link  716 at Sun May 29 19:29:56 2022, MaxMem=   262144000 cpu:               0.1 elap:               0.0
 (Enter /binaries/g16/l103.exe)

 GradGradGradGradGradGradGradGradGradGradGradGradGradGradGradGradGradGrad
 Berny optimization.
 Using GEDIIS/GDIIS optimizer.
 FormGI is forming the generalized inverse of G from B-inverse, IUseBI=4.
 Internal  Forces:  Max     0.014769382 RMS     0.003947350
 Search for a local minimum.
 Step number   3 out of a maximum of   24 on scan point     1 out of    11
 All quantities printed in internal units (Hartrees-Bohrs-Radians)
 RMS Force = .23874D-04 SwitMx=.10000D-02 MixMth= 2
 Mixed Optimization -- En-DIIS/RFO-DIIS
 Swapping is turned off.
 Update second derivatives using D2CorX and points    1    2    3
 DE= -5.78D-06 DEPred=-5.27D-06 R= 1.10D+00
 TightC=F SS=  1.41D+00  RLast= 8.67D-03 DXNew= 5.0454D-01 2.6010D-02
 Trust test= 1.10D+00 RLast= 8.67D-03 DXMaxT set to 3.00D-01
 The second derivative matrix:
                          R1        R2        R3        R4        A1
           R1           0.37291
           R2          -0.00730   0.38512
           R3          -0.00568   0.00649   0.37020
           R4          -0.00706   0.00879   0.00570   0.38012
           A1           0.00057   0.01254   0.00977   0.01212   0.15689
           A2           0.00152   0.02537   0.01997   0.02465  -0.00709
           A3           0.00165   0.00753   0.00627   0.00753  -0.00426
           A4          -0.00050  -0.02368  -0.01846  -0.02290   0.00509
           A5          -0.00219  -0.01614  -0.01298  -0.01585   0.00658
           A6          -0.00106  -0.00581  -0.00471  -0.00573   0.00281
           D1          -0.00095   0.01198   0.00892   0.01133  -0.00032
           D2           0.00020  -0.00216  -0.00163  -0.00206   0.00005
           D3          -0.00151   0.01805   0.01355   0.01714  -0.00056
[...]
     3  H    0.408216  -0.000004   0.493553  -0.017330  -0.017330
     4  H    0.408217  -0.000004  -0.017330   0.493546  -0.017329
     5  H    0.408217  -0.000004  -0.017330  -0.017329   0.493548
 Mulliken charges:
               1
     1  C   -0.075250
     2  H   -0.323443
     3  H    0.132895
     4  H    0.132900
     5  H    0.132898
 Sum of Mulliken charges =  -0.00000
 Mulliken charges with hydrogens summed into heavy atoms:
               1
     1  C   -0.000000
 Electronic spatial extent (au):  <R**2>=            134.9562
 Charge=             -0.0000 electrons
 Dipole moment (field-independent basis, Debye):
    X=              7.7374    Y=             -0.0001    Z=             -0.0001  Tot=              7.7374
 Quadrupole moment (field-independent basis, Debye-Ang):
   XX=            -40.6857   YY=             -8.5182   ZZ=             -8.5182
   XY=              0.0008   XZ=              0.0006   YZ=             -0.0000
 Traceless Quadrupole moment (field-independent basis, Debye-Ang):
   XX=            -21.4450   YY=             10.7225   ZZ=             10.7225
   XY=              0.0008   XZ=              0.0006   YZ=             -0.0000
 Octapole moment (field-independent basis, Debye-Ang**2):
  XXX=            158.1404  YYY=             -0.4050  ZZZ=             -1.1086  XYY=              7.6660
  XXY=             -0.0020  XXZ=             -0.0015  XZZ=              7.6658  YZZ=              0.4044
  YYZ=              1.1081  XYZ=              0.0003
 Hexadecapole moment (field-independent basis, Debye-Ang**3):
 XXXX=           -923.5997 YYYY=            -15.0771 ZZZZ=            -15.0771 XXXY=              0.0120
 XXXZ=              0.0089 YYYX=             -0.2040 YYYZ=             -0.0000 ZZZX=             -0.5634
 ZZZY=             -0.0000 XXYY=            -54.0839 XXZZ=            -54.0841 YYZZ=             -5.0257
 XXYZ=              0.0003 YYXZ=              0.5657 ZZXY=              0.2071
 N-N= 1.062258192200D+01 E-N=-1.126717739591D+02  KE= 3.957676393114D+01
 No NMR shielding tensors so no spin-rotation constants.
 Leave Link  601 at Sun May 29 19:30:07 2022, MaxMem=   262144000 cpu:               0.2 elap:               0.1
 (Enter /binaries/g16/l607.exe)
 ******************************Gaussian NBO Version 3.1******************************
             N A T U R A L   A T O M I C   O R B I T A L   A N D
          N A T U R A L   B O N D   O R B I T A L   A N A L Y S I S
 ******************************Gaussian NBO Version 3.1******************************
       /RESON  / : Allow strongly delocalized NBO set

 Analyzing the SCF density

 Job title: File created by ccinput                                         

 Storage needed:      3658 in NPA,      4765 in NBO ( 262143825 available)
 GSVD:  LWork=         364 too small for GESVD, short by        1166 words or        1166 for optimal perf.


 NATURAL POPULATIONS:  Natural atomic orbital occupancies 
                                                          
   NAO  Atom  No  lang   Type(AO)    Occupancy      Energy
 ----------------------------------------------------------
     1    C    1  S      Cor( 1S)     1.99957     -11.26921
     2    C    1  S      Val( 2S)     1.22577      -0.43049
     3    C    1  S      Ryd( 3S)     0.00016       0.63810
     4    C    1  px     Val( 2p)     0.65334      -0.10598
     5    C    1  px     Ryd( 3p)     0.02245       0.64363
     6    C    1  py     Val( 2p)     1.15315      -0.10067
     7    C    1  py     Ryd( 3p)     0.00318       0.65609
     8    C    1  pz     Val( 2p)     1.15315      -0.10067
     9    C    1  pz     Ryd( 3p)     0.00318       0.65609
    10    C    1  dxy    Ryd( 3d)     0.00000       2.09997
    11    C    1  dxz    Ryd( 3d)     0.00000       2.09996
    12    C    1  dyz    Ryd( 3d)     0.00116       2.70763
    13    C    1  dx2y2  Ryd( 3d)     0.00084       2.47273
    14    C    1  dz2    Ryd( 3d)     0.00105       2.62934

    15    H    2  S      Val( 1S)     1.32366      -0.17023
    16    H    2  S      Ryd( 2S)     0.00000       0.73521
    17    H    2  px     Ryd( 2p)     0.00001       1.75447
    18    H    2  py     Ryd( 2p)     0.00000       1.75470
    19    H    2  pz     Ryd( 2p)     0.00000       1.75470

    20    H    3  S      Val( 1S)     0.81789       0.06223
    21    H    3  S      Ryd( 2S)     0.00021       0.36302
    22    H    3  px     Ryd( 2p)     0.00017       1.78967
    23    H    3  py     Ryd( 2p)     0.00095       2.37749
    24    H    3  pz     Ryd( 2p)     0.00055       2.17774

    25    H    4  S      Val( 1S)     0.81789       0.06223
    26    H    4  S      Ryd( 2S)     0.00021       0.36303
    27    H    4  px     Ryd( 2p)     0.00017       1.78966
    28    H    4  py     Ryd( 2p)     0.00124       2.51726
    29    H    4  pz     Ryd( 2p)     0.00026       2.03798

    30    H    5  S      Val( 1S)     0.81789       0.06223
    31    H    5  S      Ryd( 2S)     0.00021       0.36303
    32    H    5  px     Ryd( 2p)     0.00017       1.78967
    33    H    5  py     Ryd( 2p)     0.00006       1.93812
    34    H    5  pz     Ryd( 2p)     0.00144       2.61713


 Summary of Natural Population Analysis:                  
                                                          
                                       Natural Population 
                Natural  -----------------------------------------------
    Atom  No    Charge         Core      Valence    Rydberg      Total
 -----------------------------------------------------------------------
      C    1   -0.21702      1.99957     4.18542    0.03203     6.21702
      H    2   -0.32366      0.00000     1.32366    0.00001     1.32366
      H    3    0.18023      0.00000     0.81789    0.00188     0.81977
      H    4    0.18023      0.00000     0.81789    0.00188     0.81977
      H    5    0.18023      0.00000     0.81789    0.00188     0.81977
 =======================================================================
   * Total *   -0.00000      1.99957     7.96274    0.03768    10.00000

                                 Natural Population      
 --------------------------------------------------------
   Core                       1.99957 ( 99.9787% of   2)
   Valence                    7.96274 ( 99.5343% of   8)
   Natural Minimal Basis      9.96232 ( 99.6232% of  10)
   Natural Rydberg Basis      0.03768 (  0.3768% of  10)
 --------------------------------------------------------

    Atom  No          Natural Electron Configuration
 ----------------------------------------------------------------------------
      C    1      [core]2S( 1.23)2p( 2.96)3p( 0.03)
      H    2            1S( 1.32)
      H    3            1S( 0.82)
      H    4            1S( 0.82)
      H    5            1S( 0.82)


 NATURAL BOND ORBITAL ANALYSIS:

                       Occupancies       Lewis Structure    Low   High
           Occ.    -------------------  -----------------   occ   occ
  Cycle   Thresh.   Lewis   Non-Lewis     CR  BD  3C  LP    (L)   (NL)   Dev
 =============================================================================
   1(1)    1.90     9.99695   0.00305      1   4   0   0     0      0    0.00
 -----------------------------------------------------------------------------

 Structure accepted: No low occupancy Lewis orbitals

 --------------------------------------------------------
   Core                      1.99957 ( 99.979% of   2)
   Valence Lewis             7.99737 ( 99.967% of   8)
  ==================       ============================
   Total Lewis               9.99695 ( 99.969% of  10)
  -----------------------------------------------------
   Valence non-Lewis         0.00167 (  0.017% of  10)
   Rydberg non-Lewis         0.00139 (  0.014% of  10)
  ==================       ============================
   Total non-Lewis           0.00305 (  0.031% of  10)
 --------------------------------------------------------


       (Occupancy)   Bond orbital/ Coefficients/ Hybrids
 ---------------------------------------------------------------------------------
     1. (1.99943) BD ( 1) C   1 - H   2  
                ( 33.80%)   0.5814* C   1 s(  0.07%)p99.99( 99.93%)d 0.00(  0.00%)
                                           -0.0001  0.0209  0.0153 -0.9829  0.1823
                                            0.0002 -0.0000  0.0001 -0.0000 -0.0000
                                           -0.0000 -0.0000  0.0013 -0.0007
                ( 66.20%)   0.8136* H   2 s(100.00%)p 0.00(  0.00%)
                                            1.0000 -0.0000  0.0026 -0.0000 -0.0000
     2. (1.99931) BD ( 1) C   1 - H   3  
                ( 59.04%)   0.7684* C   1 s( 33.30%)p 2.00( 66.61%)d 0.00(  0.09%)
                                            0.0000  0.5771 -0.0001  0.0123 -0.0008
                                            0.6535  0.0343  0.4869  0.0256  0.0013
                                            0.0009  0.0248 -0.0159  0.0006
                ( 40.96%)   0.6400* H   3 s( 99.82%)p 0.00(  0.18%)
                                            0.9991 -0.0003  0.0005 -0.0336 -0.0250
     3. (1.99931) BD ( 1) C   1 - H   4  
                ( 59.04%)   0.7684* C   1 s( 33.30%)p 2.00( 66.61%)d 0.00(  0.09%)
                                            0.0000  0.5771 -0.0001  0.0120 -0.0008
                                           -0.7484 -0.0393  0.3225  0.0169 -0.0014
                                            0.0006 -0.0188 -0.0211 -0.0083
                ( 40.96%)   0.6400* H   4 s( 99.82%)p 0.00(  0.18%)
                                            0.9991 -0.0003  0.0005  0.0384 -0.0166
     4. (1.99931) BD ( 1) C   1 - H   5  
                ( 59.04%)   0.7684* C   1 s( 33.30%)p 2.00( 66.61%)d 0.00(  0.09%)
                                            0.0000  0.5770 -0.0001  0.0120 -0.0008
                                            0.0949  0.0050 -0.8094 -0.0425  0.0002
                                           -0.0015 -0.0060  0.0004  0.0288
                ( 40.96%)   0.6400* H   5 s( 99.82%)p 0.00(  0.18%)
                                            0.9991 -0.0003  0.0005 -0.0049  0.0416
     5. (1.99957) CR ( 1) C   1           s(100.00%)
                                            1.0000 -0.0001  0.0000 -0.0001  0.0000
                                            0.0000 -0.0000  0.0000 -0.0000 -0.0000
                                           -0.0000  0.0000  0.0000 -0.0000
     6. (0.00000) RY*( 1) C   1           s( 99.98%)p 0.00(  0.02%)
     7. (0.00000) RY*( 2) C   1           s(  0.00%)p 1.00(100.00%)
     8. (0.00000) RY*( 3) C   1           s(  0.00%)p 1.00(100.00%)d 0.00(  0.00%)
     9. (0.00000) RY*( 4) C   1           s(  0.00%)p 1.00(100.00%)d 0.00(  0.00%)
    10. (0.00000) RY*( 5) C   1           s(  0.00%)p 0.00(  0.00%)d 1.00(100.00%)
    11. (0.00000) RY*( 6) C   1           s(  0.00%)p 0.00(  0.00%)d 1.00(100.00%)
    12. (0.00000) RY*( 7) C   1           s(  0.00%)p 1.00(  0.10%)d99.99( 99.90%)
    13. (0.00000) RY*( 8) C   1           s(  0.04%)p 0.57(  0.03%)d99.99( 99.93%)
    14. (0.00000) RY*( 9) C   1           s(  0.01%)p 5.09(  0.08%)d99.99( 99.91%)
    15. (0.00000) RY*( 1) H   2           s(100.00%)
    16. (0.00000) RY*( 2) H   2           s(  0.00%)p 1.00(100.00%)
    17. (0.00000) RY*( 3) H   2           s(  0.00%)p 1.00(100.00%)
    18. (0.00000) RY*( 4) H   2           s(  0.00%)p 1.00(100.00%)
    19. (0.00027) RY*( 1) H   3           s( 69.82%)p 0.43( 30.18%)
                                            0.0136  0.8355 -0.4529  0.2493  0.1857
    20. (0.00015) RY*( 2) H   3           s( 13.42%)p 6.45( 86.58%)
                                            0.0122  0.3661  0.8811  0.2399  0.1787
    21. (0.00004) RY*( 3) H   3           s(  0.00%)p 1.00(100.00%)
    22. (0.00001) RY*( 4) H   3           s( 16.93%)p 4.90( 83.07%)
    23. (0.00027) RY*( 1) H   4           s( 69.81%)p 0.43( 30.19%)
                                            0.0135  0.8354 -0.4532 -0.2852  0.1230
    24. (0.00015) RY*( 2) H   4           s( 13.43%)p 6.45( 86.57%)
                                            0.0122  0.3663  0.8808 -0.2753  0.1185
    25. (0.00004) RY*( 3) H   4           s(  0.00%)p 1.00(100.00%)
    26. (0.00001) RY*( 4) H   4           s( 16.93%)p 4.91( 83.07%)
    27. (0.00027) RY*( 1) H   5           s( 69.81%)p 0.43( 30.19%)
                                            0.0136  0.8354 -0.4532  0.0363 -0.3085
    28. (0.00015) RY*( 2) H   5           s( 13.43%)p 6.45( 86.57%)
                                            0.0122  0.3662  0.8809  0.0347 -0.2977
    29. (0.00004) RY*( 3) H   5           s(  0.00%)p 1.00(100.00%)
    30. (0.00001) RY*( 4) H   5           s( 16.93%)p 4.91( 83.07%)
    31. (0.00001) BD*( 1) C   1 - H   2  
                ( 66.20%)   0.8136* C   1 s(  0.07%)p99.99( 99.93%)d 0.00(  0.00%)
                ( 33.80%)  -0.5814* H   2 s(100.00%)p 0.00(  0.00%)
    32. (0.00055) BD*( 1) C   1 - H   3  
                ( 40.96%)   0.6400* C   1 s( 33.30%)p 2.00( 66.61%)d 0.00(  0.09%)
                                           -0.0000 -0.5771  0.0001 -0.0123  0.0008
                                           -0.6535 -0.0343 -0.4869 -0.0256 -0.0013
                                           -0.0009 -0.0248  0.0159 -0.0006
                ( 59.04%)  -0.7684* H   3 s( 99.82%)p 0.00(  0.18%)
                                           -0.9991  0.0003 -0.0005  0.0336  0.0250
    33. (0.00055) BD*( 1) C   1 - H   4  
                ( 40.96%)   0.6400* C   1 s( 33.30%)p 2.00( 66.61%)d 0.00(  0.09%)
                                           -0.0000 -0.5771  0.0001 -0.0120  0.0008
                                            0.7484  0.0393 -0.3225 -0.0169  0.0014
                                           -0.0006  0.0188  0.0211  0.0083
                ( 59.04%)  -0.7684* H   4 s( 99.82%)p 0.00(  0.18%)
                                           -0.9991  0.0003 -0.0005 -0.0384  0.0166
    34. (0.00055) BD*( 1) C   1 - H   5  
                ( 40.96%)   0.6400* C   1 s( 33.30%)p 2.00( 66.61%)d 0.00(  0.09%)
                                           -0.0000 -0.5770  0.0001 -0.0120  0.0008
                                           -0.0949 -0.0050  0.8094  0.0425 -0.0002
                                            0.0015  0.0060 -0.0004 -0.0288
                ( 59.04%)  -0.7684* H   5 s( 99.82%)p 0.00(  0.18%)
                                           -0.9991  0.0003 -0.0005  0.0049 -0.0416


 NHO Directionality and "Bond Bending" (deviations from line of nuclear centers)

         [Thresholds for printing:  angular deviation  >  1.0 degree]
                                    hybrid p-character > 25.0%
                                    orbital occupancy  >  0.10e

                                Line of Centers        Hybrid 1              Hybrid 2
                                ---------------  -------------------   ------------------
                NBO               Theta   Phi    Theta   Phi    Dev    Theta   Phi    Dev
 ========================================================================================
    None exceeding thresholds


 Second Order Perturbation Theory Analysis of Fock Matrix in NBO Basis

     Threshold for printing:   0.50 kcal/mol
                                                                              E(2)  E(j)-E(i) F(i,j)
         Donor NBO (i)                     Acceptor NBO (j)                 kcal/mol   a.u.    a.u. 
 ===================================================================================================

 within unit  1
   5. CR (   1) C   1                / 19. RY*(   1) H   3                    0.73   12.20    0.084
   5. CR (   1) C   1                / 23. RY*(   1) H   4                    0.73   12.20    0.084
   5. CR (   1) C   1                / 27. RY*(   1) H   5                    0.73   12.20    0.084


 Natural Bond Orbitals (Summary):

                                                            Principal Delocalizations
           NBO                        Occupancy    Energy   (geminal,vicinal,remote)
 ====================================================================================
 Molecular unit  1  (CH4)
     1. BD (   1) C   1 - H   2          1.99943    -0.20816   
     2. BD (   1) C   1 - H   3          1.99931    -0.80739   
     3. BD (   1) C   1 - H   4          1.99931    -0.80739   
     4. BD (   1) C   1 - H   5          1.99931    -0.80738   
     5. CR (   1) C   1                  1.99957   -11.26908  19(v),23(v),27(v)
     6. RY*(   1) C   1                  0.00000     0.63792   
     7. RY*(   2) C   1                  0.00000     0.66955   
     8. RY*(   3) C   1                  0.00000     0.64771   
     9. RY*(   4) C   1                  0.00000     0.64771   
    10. RY*(   5) C   1                  0.00000     2.09995   
    11. RY*(   6) C   1                  0.00000     2.09995   
    12. RY*(   7) C   1                  0.00000     2.69927   
    13. RY*(   8) C   1                  0.00000     2.46695   
    14. RY*(   9) C   1                  0.00000     2.62187   
    15. RY*(   1) H   2                  0.00000     0.73521   
    16. RY*(   2) H   2                  0.00000     1.75447   
    17. RY*(   3) H   2                  0.00000     1.75470   
    18. RY*(   4) H   2                  0.00000     1.75470   
    19. RY*(   1) H   3                  0.00027     0.92661   
    20. RY*(   2) H   3                  0.00015     1.70438   
    21. RY*(   3) H   3                  0.00004     1.92865   
    22. RY*(   4) H   3                  0.00001     2.13520   
    23. RY*(   1) H   4                  0.00027     0.92667   
    24. RY*(   2) H   4                  0.00015     1.70436   
    25. RY*(   3) H   4                  0.00004     1.92866   
    26. RY*(   4) H   4                  0.00001     2.13517   
    27. RY*(   1) H   5                  0.00027     0.92664   
    28. RY*(   2) H   5                  0.00015     1.70437   
    29. RY*(   3) H   5                  0.00004     1.92866   
    30. RY*(   4) H   5                  0.00001     2.13519   
    31. BD*(   1) C   1 - H   2          0.00001    -0.09385   
    32. BD*(   1) C   1 - H   3          0.00055     0.68486   
    33. BD*(   1) C   1 - H   4          0.00055     0.68486   
    34. BD*(   1) C   1 - H   5          0.00055     0.68487   
       -------------------------------
              Total Lewis    9.99695  ( 99.9695%)
        Valence non-Lewis    0.00167  (  0.0167%)
        Rydberg non-Lewis    0.00139  (  0.0139%)
       -------------------------------
            Total unit  1   10.00000  (100.0000%)
           Charge unit  1    0.00000
 Leave Link  607 at Sun May 29 19:30:07 2022, MaxMem=   262144000 cpu:               1.2 elap:               0.3
 (Enter /binaries/g16/l9999.exe)
 Unable to Open any file for archive entry.
 1\1\GINC-WEB\Scan\RHF\def2SVP\C1H4\CALCUS\29-May-2022\0\\#p opt(modred
 undant) HF/Def2SVP pop(nbo)\\File created by ccinput\\0,1\C,3.96369111
 14,4.5869778759,-0.0027989749\H,5.6202334263,-0.098830413,0.0022517746
 \H,4.468143559,4.7834379419,0.9311859178\H,4.4662884677,4.7803595929,-
 0.9384252966\H,2.9407434357,4.2420550024,-0.001213421\\Version=ES64L-G
 16RevC.01\State=1-A\HF=-40.1689077,-40.1205236,-40.0487345,-39.9908754
 ,-39.9467236,-39.9125936,-39.8858301,-39.8649525,-39.8490558,-39.83727
 86,-39.8286778\RMSD=3.015e-09,8.553e-09,3.468e-09,4.856e-09,1.734e-09,
 1.156e-09,8.849e-09,4.721e-09,3.415e-09,2.907e-09,2.436e-09\PG=C01 [X(
 C1H4)]\\@
 The archive entry for this job was punched.


 The mind is not a vessel to be filled but a fire to be kindled.
                                  -- Plutarch
 Job cpu time:       0 days  0 hours  0 minutes 49.4 seconds.
 Elapsed time:       0 days  0 hours  0 minutes 12.5 seconds.
 File lengths (MBytes):  RWF=      6 Int=      0 D2E=      0 Chk=      2 Scr=      1
 Normal termination of Gaussian 16 at Sun May 29 19:30:07 2022.
