5
 energy: -4.002657495985 gnorm: 0.042902103334 xtb: 6.4.1 (afa7bdf)
C         4.10551231959256    3.41287093385060   -0.44624466315486
H         4.71845673599847    3.16807396403816    0.41075295184060
H         5.00276443173907    3.82786015494114    1.25235454581104
H         4.54125035759753    4.19843315057590   -1.05843794660946
H         3.09111615507237    3.68676179659419   -0.16742488788732
5
 energy: -4.003034341833 gnorm: 0.002427197011 xtb: 6.4.1 (afa7bdf)
C         4.10561273794230    3.41379283665119   -0.44555182105474
H         4.71740606738607    3.17640565441998    0.41382751583984
H         5.00670340536872    3.82156006298564    1.25514739376469
H         4.53985269951696    4.19699052124496   -1.06177749179252
H         3.08952508978595    3.68525092469823   -0.17064559675728
5
 energy: -4.003038496249 gnorm: 0.001612514125 xtb: 6.4.1 (afa7bdf)
C         4.10444893393502    3.40963456793344   -0.44983384482608
H         4.71684159109807    3.17385276483457    0.41144280690797
H         5.00767898698974    3.82530887942857    1.25888795181982
H         4.53891906627117    4.19800947246215   -1.05950950530585
H         3.09121142170602    3.68719431534126   -0.16998740859586
5
 energy: -4.003043541927 gnorm: 0.000720603095 xtb: 6.4.1 (afa7bdf)
C         4.10482969981372    3.41259995745697   -0.44751124531781
H         4.71802937669888    3.17536136214237    0.41424226578216
H         5.00785959420548    3.82247592304178    1.25755504451502
H         4.53925936939632    4.19761762136731   -1.06215054705675
H         3.08912195988560    3.68594513599157   -0.17113551792262
5
 energy: -4.003044950352 gnorm: 0.000168273172 xtb: 6.4.1 (afa7bdf)
C         4.10468675418175    3.41128066795454   -0.44850150345185
H         4.71790569901735    3.17510037230673    0.41389110352939
H         5.00724381807056    3.82320015397969    1.25696875702918
H         4.53922787676443    4.19787885889178   -1.06089625450602
H         3.09003585196592    3.68653994686726   -0.17046210260071
5
 energy: -4.003044991874 gnorm: 0.000026297717 xtb: 6.4.1 (afa7bdf)
C         4.10463471051145    3.41114131451890   -0.44866622989815
H         4.71798245111195    3.17507376858185    0.41400074103815
H         5.00719296975349    3.82323241444156    1.25690452655272
H         4.53926416879656    4.19795390101031   -1.06085086320154
H         3.09002569982655    3.68659860144738   -0.17038817449118
