5
 energy: -4.002657495995 gnorm: 0.042902102677 xtb: 6.5.1 (579679a)
C            4.10551233269854        3.41287095680692       -0.44624461905447
H            4.71845669583264        3.16807400871652        0.41075291260663
H            5.00276437528588        3.82786013940318        1.25235442494308
H            4.54125033090886        4.19843309452928       -1.05843785288886
H            3.09111626527408        3.68676180054410       -0.16742486560637
5
 energy: -4.003034341804 gnorm: 0.002427199463 xtb: 6.5.1 (579679a)
C            4.10561275253788        3.41379286347669       -0.44555177241787
H            4.71740602856458        3.17640570062044        0.41382747977414
H            5.00670334880872        3.82156004379974        1.25514727061152
H            4.53985267236349        4.19699046469814       -1.06177740139829
H            3.08952519772533        3.68525092740499       -0.17064557656950
5
 energy: -4.003038496182 gnorm: 0.001612521697 xtb: 6.5.1 (579679a)
C            4.10444894403841        3.40963457879241       -0.44983381178234
H            4.71684154827195        3.17385280019236        0.41144275788610
H            5.00767893493922        3.82530887645551        1.25888784524789
H            4.53891903578455        4.19800941940101       -1.05950940561858
H            3.09121153696587        3.68719432515871       -0.16998738573306
5
 energy: -4.003043541910 gnorm: 0.000720608319 xtb: 6.5.1 (579679a)
C            4.10482971636113        3.41259998618446       -0.44751119327426
H            4.71802933623558        3.17536141191597        0.41424222898286
H            5.00785953182642        3.82247590166456        1.25755491062139
H            4.53925934600009        4.19761756333963       -1.06215045312766
H            3.08912206957679        3.68594513689539       -0.17113549320233
5
 energy: -4.003044950352 gnorm: 0.000168273417 xtb: 6.5.1 (579679a)
C            4.10468676698129        3.41128069175324       -0.44850145989427
H            4.71790565867204        3.17510041551130        0.41389106340288
H            5.00724376330670        3.82320013947454        1.25696863944127
H            4.53922784987905        4.19787880279673       -1.06089616202419
H            3.09003596116093        3.68653995046420       -0.17046208092569
5
 energy: -4.003044991874 gnorm: 0.000026297829 xtb: 6.5.1 (579679a)
C            4.10463472393588        3.41114133734102       -0.44866618539929
H            4.71798241071582        3.17507381273847        0.41400070132050
H            5.00719291175084        3.82323239945014        1.25690440332159
H            4.53926414263932        4.19795384501232       -1.06085076815657
H            3.09002581095815        3.68659860545805       -0.17038815108623
