5
 energy: -4.002657495983 gnorm: 0.042902103260 xtb: 6.4.1 (afa7bdf)
C         4.10551231996196    3.41287093414780   -0.44624466246229
H         4.71845673578675    3.16807396456597    0.41075295187566
H         5.00276443104094    3.82786015449830    1.25235454442012
H         4.54125035777079    4.19843315035729   -1.05843794624311
H         3.09111615543956    3.68676179643064   -0.16742488759038
5
 energy: -4.003034341853 gnorm: 0.002427195970 xtb: 6.4.1 (afa7bdf)
C         4.10561273692728    3.41379283214517   -0.44555182460341
H         4.71740606592294    3.17640565205358    0.41382751220619
H         5.00670340448160    3.82156006719243    1.25514739469790
H         4.53985270045222    4.19699052246166   -1.06177748829370
H         3.08952509221596    3.68525092614716   -0.17064559400699
5
 energy: -4.003038496237 gnorm: 0.001612517086 xtb: 6.4.1 (afa7bdf)
C         4.10444893281053    3.40963456842485   -0.44983384654926
H         4.71684159047184    3.17385276360454    0.41144280506680
H         5.00767899128735    3.82530888082305    1.25888795960124
H         4.53891906386532    4.19800947166317   -1.05950950663867
H         3.09121142156496    3.68719431548439   -0.16998741148010
5
 energy: -4.003043541921 gnorm: 0.000720607281 xtb: 6.4.1 (afa7bdf)
C         4.10482970066509    3.41259995964770   -0.44751124209916
H         4.71802937714604    3.17536136306434    0.41424226701123
H         5.00785959237526    3.82247592119391    1.25755504048307
H         4.53925937063481    4.19761762117052   -1.06215054791008
H         3.08912195917880    3.68594513492354   -0.17113551748506
5
 energy: -4.003044950353 gnorm: 0.000168273542 xtb: 6.4.1 (afa7bdf)
C         4.10468675387230    3.41128066538862   -0.44850150548499
H         4.71790569851610    3.17510037208838    0.41389110265362
H         5.00724381755462    3.82320015527600    1.25696875691850
H         4.53922787647793    4.19787885930595   -1.06089625242368
H         3.09003585357906    3.68653994794105   -0.17046210166345
5
 energy: -4.003044991874 gnorm: 0.000026298292 xtb: 6.4.1 (afa7bdf)
C         4.10463471055122    3.41114131452441   -0.44866622979962
H         4.71798245107213    3.17507376829652    0.41400074086832
H         5.00719296960388    3.82323241465412    1.25690452640951
H         4.53926416879844    4.19795390103598   -1.06085086306133
H         3.09002569997434    3.68659860148897   -0.17038817441687
