5
 energy: -4.010954554751 xtb: 6.5.1 (579679a)
C            4.11317685471478        3.43027356098078       -0.42342195182010
H            4.72181829912862        3.11277495054514        0.38414806042879
H            4.96715042276912        3.86358580400879        1.21457757367394
H            4.55844522362925        4.20116148483782       -1.04033262601858
H            3.09850919975824        3.68620419962748       -0.14397105626405
5
 energy: -4.009985794975 xtb: 6.5.1 (579679a)
C            4.11232492815335        3.42718974415612       -0.42692825804373
H            4.72134398775443        3.11921524580193        0.38740512824810
H            4.97159059617700        3.85961003749874        1.21982803519351
H            4.55565093398905        4.20112204741534       -1.04239864604690
H            3.09818955392617        3.68686292512787       -0.14690625935098
5
 energy: -4.009052992367 xtb: 6.5.1 (579679a)
C            4.11134386279615        3.42506196133275       -0.42975315056372
H            4.72093831507955        3.12626509627396        0.39078229946054
H            4.97604734861563        3.85504024086854        1.22448133853006
H            4.55352054121609        4.20073457797827       -1.04464737736727
H            3.09724993229259        3.68689812354647       -0.14986311005961
5
 energy: -4.008152929002 xtb: 6.5.1 (579679a)
C            4.11031867349584        3.42285655114982       -0.43268792978936
H            4.72056370267064        3.13323341438337        0.39417461256522
H            4.98051486658543        3.85054854253009        1.22917206244570
H            4.55143065830022        4.20040282560949       -1.04687946724279
H            3.09627209894787        3.68695866632722       -0.15277927797877
5
 energy: -4.007284401346 xtb: 6.5.1 (579679a)
C            4.10925470694940        3.42055163965054       -0.43574316775644
H            4.72020141175805        3.14011502011951        0.39753678684368
H            4.98497175450526        3.84615844980853        1.23390467610072
H            4.54937950258421        4.20012045563598       -1.04907001405334
H            3.09529262420309        3.68705443478544       -0.15562828113462
5
 energy: -4.006446778382 xtb: 6.5.1 (579679a)
C            4.10828401492069        3.41851356742985       -0.43849335973387
H            4.71978619045330        3.14709673449202        0.40087031413477
H            4.98942954355133        3.84161973586498        1.23855338789515
H            4.54732035191102        4.19973337894622       -1.05136455766402
H            3.09427989916366        3.68703658326693       -0.15856578463202
5
 energy: -4.005637882394 xtb: 6.5.1 (579679a)
C            4.10733626382966        3.41655431564703       -0.44116095165287
H            4.71935868797590        3.15408461223872        0.40418739322601
H            4.99388159673134        3.83705545490516        1.24317808183664
H            4.54527894494630        4.19932372330410       -1.05369258300145
H            3.09324450651680        3.68698189390500       -0.16151194040832
5
 energy: -4.004856370850 xtb: 6.5.1 (579679a)
C            4.10641262880541        3.41467438571273       -0.44374374311432
H            4.71891548576317        3.16107736159076        0.40748171829805
H            4.99832688833622        3.83246833295084        1.24777865480616
H            4.54325542345726        4.19888999417126       -1.05605106901730
H            3.09218957363793        3.68688992557442       -0.16446556097259
5
 energy: -4.004100834624 xtb: 6.5.1 (579679a)
C            4.10551233269854        3.41287095680692       -0.44624461905447
H            4.71845669583264        3.16807400871652        0.41075291260663
H            5.00276437528588        3.82786013940318        1.25235442494308
H            4.54125033090886        4.19843309452928       -1.05843785288886
H            3.09111626527408        3.68676180054410       -0.16742486560637
5
 energy: -4.003369921639 xtb: 6.5.1 (579679a)
C            4.10463472393588        3.41114133734102       -0.44866618539929
H            4.71798241071582        3.17507381273847        0.41400070132050
H            5.00719291175084        3.82323239945014        1.25690440332159
H            4.53926414263932        4.19795384501232       -1.06085076815657
H            3.09002581095815        3.68659860545805       -0.17038815108623
