5
 energy: -4.010954554622 xtb: 6.4.1 (afa7bdf)
C         4.11317685803231    3.43027353418308   -0.42342200933509
H         4.72181832314200    3.11277488376559    0.38414811211903
H         4.96715048219537    3.86358582797803    1.21457771087802
H         4.55844522715102    4.20116155315177   -1.04033273778215
H         3.09850910947931    3.68620420092153   -0.14397107587981
5
 energy: -4.009985794981 xtb: 6.4.1 (afa7bdf)
C         4.11232491591787    3.42718972308064   -0.42692829976296
H         4.72134402816787    3.11921519682360    0.38740516462478
H         4.97159064964528    3.85961005576136    1.21982815347797
H         4.55565096179778    4.20112210347384   -1.04239873887504
H         3.09818944447120    3.68686292086056   -0.14690627946475
5
 energy: -4.009052992373 xtb: 6.4.1 (afa7bdf)
C         4.11134384995741    3.42506193873919   -0.42975319351918
H         4.72093835641819    3.12626504780377    0.39078233653554
H         4.97604740220375    3.85504025910695    1.22448145656431
H         4.55352056899725    4.20073463427871   -1.04464746914582
H         3.09724982242341    3.68689812007137   -0.14986313043485
5
 energy: -4.008152929006 xtb: 6.4.1 (afa7bdf)
C         4.11031866154318    3.42285652866439   -0.43268797194379
H         4.72056374356703    3.13323336770305    0.39417465120820
H         4.98051491912779    3.85054855905868    1.22917217744688
H         4.55143068610717    4.20040288190899   -1.04687955869556
H         3.09627198965483    3.68695866266488   -0.15277929801574
5
 energy: -4.007284401340 xtb: 6.4.1 (afa7bdf)
C         4.10925469418777    3.42055161769662   -0.43574321037417
H         4.72020145243762    3.14011497342582    0.39753682491948
H         4.98497180914854    3.84615846649993    1.23390479472833
H         4.54937952999184    4.20012051165437   -1.04907010687798
H         3.09529251423424    3.68705443072326   -0.15562830239566
5
 energy: -4.006446778395 xtb: 6.4.1 (afa7bdf)
C         4.10828400181135    3.41851354561970   -0.43849340286894
H         4.71978623115753    3.14709668732624    0.40087035196787
H         4.98942960024761    3.84161975287147    1.23855351003532
H         4.54732037863097    4.19973343498484   -1.05136465190423
H         3.09427978815255    3.68703657919775   -0.15856580723002
5
 energy: -4.005637882385 xtb: 6.4.1 (afa7bdf)
C         4.10733625089817    3.41655429357259   -0.44116099464228
H         4.71935872845806    3.15408456655182    0.40418743158751
H         4.99388165295187    3.83705547094852    1.24317820264210
H         4.54527897174768    4.19932377912908   -1.05369267676081
H         3.09324439594423    3.68698188979799   -0.16151196282651
5
 energy: -4.004856370840 xtb: 6.4.1 (afa7bdf)
C         4.10641261587360    3.41467436349760   -0.44374378648774
H         4.71891552588938    3.16107731650132    0.40748175726109
H         4.99832694494652    3.83246834855126    1.24777877585850
H         4.54325545011541    4.19889005009484   -1.05605116312077
H         3.09218946317509    3.68688992135498   -0.16446558351108
5
 energy: -4.004100834634 xtb: 6.4.1 (afa7bdf)
C         4.10551231959256    3.41287093385060   -0.44624466315486
H         4.71845673599847    3.16807396403816    0.41075295184060
H         5.00276443173907    3.82786015494114    1.25235454581104
H         4.54125035759753    4.19843315057590   -1.05843794660946
H         3.09111615507237    3.68676179659419   -0.16742488788732
5
 energy: -4.003369921623 xtb: 6.4.1 (afa7bdf)
C         4.10463471051145    3.41114131451890   -0.44866622989815
H         4.71798245111195    3.17507376858185    0.41400074103815
H         5.00719296975349    3.82323241444156    1.25690452655272
H         4.53926416879656    4.19795390101031   -1.06085086320154
H         3.09002569982655    3.68659860144738   -0.17038817449118
