2
 energy: -0.958996962849 gnorm: 0.252100312944 xtb: 6.5.1 (579679a)
H           -1.43860000000000       -0.26820000000000        0.00000000000000
H           -2.03860000000000       -0.26820000000000        0.00000000000000
2
 energy: -0.981695941754 gnorm: 0.036075563929 xtb: 6.5.1 (579679a)
H           -1.37186625457500       -0.26820000000000        0.00000000000000
H           -2.10533374542500       -0.26820000000000        0.00000000000000
2
 energy: -0.982465260919 gnorm: 0.016153128495 xtb: 6.5.1 (579679a)
H           -1.36073176222055       -0.26820000000000        0.00000000000000
H           -2.11646823777945       -0.26820000000000        0.00000000000000
2
 energy: -0.982682068532 gnorm: 0.002114326212 xtb: 6.5.1 (579679a)
H           -1.35170915600167       -0.26820000000000        0.00000000000000
H           -2.12549084399833       -0.26820000000000        0.00000000000000
2
 energy: -0.982686155963 gnorm: 0.000142641451 xtb: 6.5.1 (579679a)
H           -1.35035031644371       -0.26820000000000        0.00000000000000
H           -2.12684968355629       -0.26820000000000        0.00000000000000
2
 energy: -0.982686170417 gnorm: 0.000069220815 xtb: 6.5.1 (579679a)
H           -1.35020285868768       -0.26820000000000        0.00000000000000
H           -2.12699714131232       -0.26820000000000        0.00000000000000
