2
 energy: -0.982686170417 gnorm: 0.000069220815 xtb: 6.5.1 (579679a)
H           -1.35020285868768       -0.26820000000000        0.00000000000000
H           -2.12699714131232       -0.26820000000000        0.00000000000000
