 Entering Gaussian System, Link 0=g16
 Input=calc.com
 Output=calc.log
 Initial command:
 /binaries/g16/l1.exe "/calcus/scratch/scr/10/Gau-28.inp" -scrdir="/calcus/scratch/scr/10/"
 Entering Link 1 = /binaries/g16/l1.exe PID=        30.
  
 Copyright (c) 1988-2019, Gaussian, Inc.  All Rights Reserved.
  
 This is part of the Gaussian(R) 16 program.  It is based on
 the Gaussian(R) 09 system (copyright 2009, Gaussian, Inc.),
 the Gaussian(R) 03 system (copyright 2003, Gaussian, Inc.),
 the Gaussian(R) 98 system (copyright 1998, Gaussian, Inc.),
 the Gaussian(R) 94 system (copyright 1995, Gaussian, Inc.),
 the Gaussian 92(TM) system (copyright 1992, Gaussian, Inc.),
 the Gaussian 90(TM) system (copyright 1990, Gaussian, Inc.),
 the Gaussian 88(TM) system (copyright 1988, Gaussian, Inc.),
 the Gaussian 86(TM) system (copyright 1986, Carnegie Mellon
 University), and the Gaussian 82(TM) system (copyright 1983,
 Carnegie Mellon University). Gaussian is a federally registered
 trademark of Gaussian, Inc.
  
 This software contains proprietary and confidential information,
 including trade secrets, belonging to Gaussian, Inc.
  
 This software is provided under written license and may be
 used, copied, transmitted, or stored only in accord with that
 written license.
  
 The following legend is applicable only to US Government
 contracts under FAR:
  
                    RESTRICTED RIGHTS LEGEND
  
 Use, reproduction and disclosure by the US Government is
 subject to restrictions as set forth in subparagraphs (a)
 and (c) of the Commercial Computer Software - Restricted
 Rights clause in FAR 52.227-19.
  
 Gaussian, Inc.
 340 Quinnipiac St., Bldg. 40, Wallingford CT 06492
  
  
 ---------------------------------------------------------------
 Warning -- This program may not be used in any manner that
 competes with the business of Gaussian, Inc. or will provide
 assistance to any competitor of Gaussian, Inc.  The licensee
 of this program is prohibited from giving any competitor of
 Gaussian, Inc. access to this program.  By using this program,
 the user acknowledges that Gaussian, Inc. is engaged in the
 business of creating and licensing software in the field of
 computational chemistry and represents and warrants to the
 licensee that it is not a competitor of Gaussian, Inc. and that
 it will not use this program in any manner prohibited above.
 ---------------------------------------------------------------
  

 Cite this work as:
 Gaussian 16, Revision C.01,
 M. J. Frisch, G. W. Trucks, H. B. Schlegel, G. E. Scuseria, 
 M. A. Robb, J. R. Cheeseman, G. Scalmani, V. Barone, 
 G. A. Petersson, H. Nakatsuji, X. Li, M. Caricato, A. V. Marenich, 
 J. Bloino, B. G. Janesko, R. Gomperts, B. Mennucci, H. P. Hratchian, 
 J. V. Ortiz, A. F. Izmaylov, J. L. Sonnenberg, D. Williams-Young, 
 F. Ding, F. Lipparini, F. Egidi, J. Goings, B. Peng, A. Petrone, 
 T. Henderson, D. Ranasinghe, V. G. Zakrzewski, J. Gao, N. Rega, 
 G. Zheng, W. Liang, M. Hada, M. Ehara, K. Toyota, R. Fukuda, 
 J. Hasegawa, M. Ishida, T. Nakajima, Y. Honda, O. Kitao, H. Nakai, 
 T. Vreven, K. Throssell, J. A. Montgomery, Jr., J. E. Peralta, 
 F. Ogliaro, M. J. Bearpark, J. J. Heyd, E. N. Brothers, K. N. Kudin, 
 V. N. Staroverov, T. A. Keith, R. Kobayashi, J. Normand, 
 K. Raghavachari, A. P. Rendell, J. C. Burant, S. S. Iyengar, 
 J. Tomasi, M. Cossi, J. M. Millam, M. Klene, C. Adamo, R. Cammi, 
 J. W. Ochterski, R. L. Martin, K. Morokuma, O. Farkas, 
 J. B. Foresman, and D. J. Fox, Gaussian, Inc., Wallingford CT, 2019.
 
 ******************************************
 Gaussian 16:  ES64L-G16RevC.01  3-Jul-2019
                 5-Sep-2022 
 ******************************************
 %chk=in.chk
 %nproc=1
 Will use up to    1 processors via shared memory.
 %mem=2000MB
 ---------------------
 #p freq M062X/Def2SVP
 ---------------------
 1/10=4,30=1,38=1/1,3;
 2/12=2,17=6,18=5,40=1/2;
 3/5=43,7=101,11=2,25=1,30=1,71=2,74=-55,140=1/1,2,3;
 4//1;
 5/5=2,38=5,98=1/2;
 8/6=4,10=90,11=11/1;
 11/6=1,8=1,9=11,15=111,16=1/1,2,10;
 10/6=1/2;
 6/7=2,8=2,9=2,10=2,28=1/1;
 7/8=1,10=1,25=1/1,2,3,16;
 1/10=4,30=1/3;
 99//99;
 Leave Link    1 at Mon Sep  5 11:44:59 2022, MaxMem=   262144000 cpu:               0.0 elap:               0.0
 (Enter /binaries/g16/l101.exe)
 -----------------------
 File created by ccinput
 -----------------------
 Symbolic Z-matrix:
 Charge =  0 Multiplicity = 1
 C                     4.2918    3.6588    0. 
 H                     4.6485    2.65      0. 
 H                     4.6485    4.1632    0.8707 
 H                     4.6485    4.1632   -0.8797 
 H                     3.2218    3.6588    0. 
 
 ITRead=  0  0  0  0  0
 MicOpt= -1 -1 -1 -1 -1
 NAtoms=      5 NQM=        5 NQMF=       0 NMMI=      0 NMMIF=      0
                NMic=       0 NMicF=      0.
                    Isotopes and Nuclear Properties:
 (Nuclear quadrupole moments (NQMom) in fm**2, nuclear magnetic moments (NMagM)
  in nuclear magnetons)

  Atom         1           2           3           4           5
 IAtWgt=          12           1           1           1           1
 AtmWgt=  12.0000000   1.0078250   1.0078250   1.0078250   1.0078250
 NucSpn=           0           1           1           1           1
 AtZEff=  -0.0000000  -0.0000000  -0.0000000  -0.0000000  -0.0000000
 NQMom=    0.0000000   0.0000000   0.0000000   0.0000000   0.0000000
 NMagM=    0.0000000   2.7928460   2.7928460   2.7928460   2.7928460
 AtZNuc=   6.0000000   1.0000000   1.0000000   1.0000000   1.0000000
 Leave Link  101 at Mon Sep  5 11:44:59 2022, MaxMem=   262144000 cpu:               0.1 elap:               0.1
 (Enter /binaries/g16/l103.exe)

 GradGradGradGradGradGradGradGradGradGradGradGradGradGradGradGradGradGrad
 Berny optimization.
 Initialization pass.
 Trust Radius=3.00D-01 FncErr=1.00D-07 GrdErr=1.00D-07 EigMax=2.50D+02 EigMin=1.00D-04
 Number of steps in this run=      2 maximum allowed number of steps=      2.
 GradGradGradGradGradGradGradGradGradGradGradGradGradGradGradGradGradGrad

 Leave Link  103 at Mon Sep  5 11:44:59 2022, MaxMem=   262144000 cpu:               0.0 elap:               0.0
 (Enter /binaries/g16/l202.exe)
                          Input orientation:                          
 ---------------------------------------------------------------------
 Center     Atomic      Atomic             Coordinates (Angstroms)
 Number     Number       Type             X           Y           Z
 ---------------------------------------------------------------------
      1          6           0        4.291800    3.658800    0.000000
      2          1           0        4.648500    2.650000    0.000000
      3          1           0        4.648500    4.163200    0.870700
      4          1           0        4.648500    4.163200   -0.879700
      5          1           0        3.221800    3.658800    0.000000
 ---------------------------------------------------------------------
                    Distance matrix (angstroms):
                    1          2          3          4          5
     1  C    0.000000
     2  H    1.070006   0.000000
     3  H    1.067601   1.745822   0.000000
     4  H    1.074954   1.750327   1.750400   0.000000
     5  H    1.070000   1.747327   1.745855   1.750361   0.000000
 Stoichiometry    CH4
 Framework group  C1[X(CH4)]
 Deg. of freedom     9
 Full point group                 C1      NOp   1
 Largest Abelian subgroup         C1      NOp   1
 Largest concise Abelian subgroup C1      NOp   1
                         Standard orientation:                         
 ---------------------------------------------------------------------
 Center     Atomic      Atomic             Coordinates (Angstroms)
 Number     Number       Type             X           Y           Z
 ---------------------------------------------------------------------
      1          6           0       -0.000767    0.000001    0.000472
      2          1           0       -0.325680   -0.869163   -0.532348
      3          1           0       -0.412253   -0.010991    0.985525
      4          1           0        1.072605    0.002075    0.058743
      5          1           0       -0.330072    0.878070   -0.514750
 ---------------------------------------------------------------------
 Rotational constants (GHZ):         164.4303219         163.9529333         163.7655362
 Leave Link  202 at Mon Sep  5 11:44:59 2022, MaxMem=   262144000 cpu:               0.0 elap:               0.0
 (Enter /binaries/g16/l301.exe)
 Standard basis: def2SVP (5D, 7F)
 Ernie: Thresh=  0.10000D-02 Tol=  0.10000D-05 Strict=F.
 There are    35 symmetry adapted cartesian basis functions of A   symmetry.
 There are    34 symmetry adapted basis functions of A   symmetry.
    34 basis functions,    53 primitive gaussians,    35 cartesian basis functions
     5 alpha electrons        5 beta electrons
       nuclear repulsion energy        13.6784087271 Hartrees.
 IExCor= 4336 DFT=T Ex+Corr=M062X ExCW=0 ScaHFX=  0.540000
 ScaDFX=  1.000000  1.000000  1.000000  1.000000 ScalE2=  1.000000  1.000000
 IRadAn=      5 IRanWt=     -1 IRanGd=            0 ICorTp=0 IEmpDi=  4
 NAtoms=    5 NActive=    5 NUniq=    5 SFac= 1.00D+00 NAtFMM=   60 NAOKFM=F Big=F
 Integral buffers will be    131072 words long.
 Raffenetti 2 integral format.
 Two-electron integral symmetry is turned on.
 Leave Link  301 at Mon Sep  5 11:44:59 2022, MaxMem=   262144000 cpu:               0.0 elap:               0.0
 (Enter /binaries/g16/l302.exe)
 NPDir=0 NMtPBC=     1 NCelOv=     1 NCel=       1 NClECP=     1 NCelD=      1
         NCelK=      1 NCelE2=     1 NClLst=     1 CellRange=     0.0.
 One-electron integrals computed using PRISM.
 One-electron integral symmetry used in STVInt
   1 Symmetry operations used in ECPInt.
 ECPInt:  NShTT=     171 NPrTT=     553 LenC2=     172 LenP2D=     543.
 LDataN:  DoStor=T MaxTD1= 4 Len=   56
 NBasis=    34 RedAO= T EigKep=  1.32D-02  NBF=    34
 NBsUse=    34 1.00D-06 EigRej= -1.00D+00 NBFU=    34
 Precomputing XC quadrature grid using
 IXCGrd= 4 IRadAn=           5 IRanWt=          -1 IRanGd=           0 AccXCQ= 0.00D+00.
 Generated NRdTot=       0 NPtTot=           0 NUsed=           0 NTot=          32
 NSgBfM=    35    35    35    35    35 MxSgAt=     5 MxSgA2=     5.
 Leave Link  302 at Mon Sep  5 11:44:59 2022, MaxMem=   262144000 cpu:               0.1 elap:               0.1
 (Enter /binaries/g16/l303.exe)
 DipDrv:  MaxL=1.
 Leave Link  303 at Mon Sep  5 11:44:59 2022, MaxMem=   262144000 cpu:               0.0 elap:               0.0
 (Enter /binaries/g16/l401.exe)
 ExpMin= 1.22D-01 ExpMax= 1.24D+03 ExpMxC= 1.86D+02 IAcc=3 IRadAn=         5 AccDes= 0.00D+00
 Harris functional with IExCor= 1009 and IRadAn=       5 diagonalized for initial guess.
 HarFok:  IExCor= 1009 AccDes= 0.00D+00 IRadAn=         5 IDoV= 1 UseB2=F ITyADJ=14
 ICtDFT=  3500011 ScaDFX=  1.000000  1.000000  1.000000  1.000000
 FoFCou: FMM=F IPFlag=           0 FMFlag=      100000 FMFlg1=           0
         NFxFlg=           0 DoJE=T BraDBF=F KetDBF=T FulRan=T
         wScrn=  0.000000 ICntrl=       500 IOpCl=  0 I1Cent=   200000004 NGrid=           0
         NMat0=    1 NMatS0=      1 NMatT0=    0 NMatD0=    1 NMtDS0=    0 NMtDT0=    0
 Petite list used in FoFCou.
 Harris En= -40.4890225627125    
 JPrj=0 DoOrth=F DoCkMO=F.
 Leave Link  401 at Mon Sep  5 11:45:00 2022, MaxMem=   262144000 cpu:               0.2 elap:               0.2
 (Enter /binaries/g16/l502.exe)
 Keep R1 ints in memory in canonical form, NReq=1042663.
 FoFCou: FMM=F IPFlag=           0 FMFlag=           0 FMFlg1=           0
         NFxFlg=           0 DoJE=F BraDBF=F KetDBF=F FulRan=T
         wScrn=  0.000000 ICntrl=       600 IOpCl=  0 I1Cent=           0 NGrid=           0
         NMat0=    1 NMatS0=    595 NMatT0=    0 NMatD0=    1 NMtDS0=    0 NMtDT0=    0
 Symmetry not used in FoFCou.
 Two-electron integral symmetry not used.
 Closed shell SCF:
 Using DIIS extrapolation, IDIIS=  1040.
 NGot=   262144000 LenX=   261963332 LenY=   261961666
 Requested convergence on RMS density matrix=1.00D-08 within 128 cycles.
 Requested convergence on MAX density matrix=1.00D-06.
 Requested convergence on             energy=1.00D-06.
 No special actions if energy rises.
 Integral accuracy reduced to 1.0D-05 until final iterations.

 Cycle   1  Pass 0  IDiag  1:
 E= -40.3595509037505    
 DIIS: error= 5.28D-02 at cycle   1 NSaved=   1.
 NSaved= 1 IEnMin= 1 EnMin= -40.3595509037505     IErMin= 1 ErrMin= 5.28D-02
 ErrMax= 5.28D-02  0.00D+00 EMaxC= 1.00D-01 BMatC= 8.11D-02 BMatP= 8.11D-02
 IDIUse=3 WtCom= 4.72D-01 WtEn= 5.28D-01
 Coeff-Com:  0.100D+01
 Coeff-En:   0.100D+01
 Coeff:      0.100D+01
 Gap=     0.490 Goal=   None    Shift=    0.000
 GapD=    0.490 DampG=2.000 DampE=0.500 DampFc=1.0000 IDamp=-1.
 RMSDP=1.25D-02 MaxDP=1.57D-01              OVMax= 1.61D-01

 Cycle   2  Pass 0  IDiag  1:
 E= -40.3946308520983     Delta-E=       -0.035079948348 Rises=F Damp=F
 DIIS: error= 4.21D-02 at cycle   2 NSaved=   2.
 NSaved= 2 IEnMin= 2 EnMin= -40.3946308520983     IErMin= 2 ErrMin= 4.21D-02
 ErrMax= 4.21D-02  0.00D+00 EMaxC= 1.00D-01 BMatC= 5.00D-02 BMatP= 8.11D-02
 IDIUse=3 WtCom= 5.79D-01 WtEn= 4.21D-01
 Coeff-Com:  0.439D+00 0.561D+00
 Coeff-En:   0.356D+00 0.644D+00
 Coeff:      0.404D+00 0.596D+00
 Gap=     0.575 Goal=   None    Shift=    0.000
 RMSDP=5.71D-03 MaxDP=7.28D-02 DE=-3.51D-02 OVMax= 7.36D-02

 Cycle   3  Pass 0  IDiag  1:
 E= -40.4480918959378     Delta-E=       -0.053461043840 Rises=F Damp=F
 DIIS: error= 3.05D-03 at cycle   3 NSaved=   3.
 NSaved= 3 IEnMin= 3 EnMin= -40.4480918959378     IErMin= 3 ErrMin= 3.05D-03
 ErrMax= 3.05D-03  0.00D+00 EMaxC= 1.00D-01 BMatC= 2.53D-04 BMatP= 5.00D-02
 IDIUse=3 WtCom= 9.69D-01 WtEn= 3.05D-02
 Coeff-Com: -0.239D-01 0.398D-01 0.984D+00
 Coeff-En:   0.000D+00 0.000D+00 0.100D+01
 Coeff:     -0.232D-01 0.386D-01 0.985D+00
 Gap=     0.576 Goal=   None    Shift=    0.000
 RMSDP=3.53D-04 MaxDP=4.76D-03 DE=-5.35D-02 OVMax= 4.85D-03

 Cycle   4  Pass 0  IDiag  1:
 E= -40.4483579462622     Delta-E=       -0.000266050324 Rises=F Damp=F
 DIIS: error= 6.21D-05 at cycle   4 NSaved=   4.
 NSaved= 4 IEnMin= 4 EnMin= -40.4483579462622     IErMin= 4 ErrMin= 6.21D-05
 ErrMax= 6.21D-05  0.00D+00 EMaxC= 1.00D-01 BMatC= 6.31D-08 BMatP= 2.53D-04
 IDIUse=1 WtCom= 1.00D+00 WtEn= 0.00D+00
 Coeff-Com:  0.276D-02-0.583D-02-0.120D+00 0.112D+01
 Coeff:      0.276D-02-0.583D-02-0.120D+00 0.112D+01
 Gap=     0.576 Goal=   None    Shift=    0.000
 RMSDP=2.33D-05 MaxDP=1.45D-04 DE=-2.66D-04 OVMax= 1.23D-04

 Cycle   5  Pass 0  IDiag  1:
 E= -40.4483580396268     Delta-E=       -0.000000093365 Rises=F Damp=F
 DIIS: error= 5.94D-06 at cycle   5 NSaved=   5.
 NSaved= 5 IEnMin= 5 EnMin= -40.4483580396268     IErMin= 5 ErrMin= 5.94D-06
 ErrMax= 5.94D-06  0.00D+00 EMaxC= 1.00D-01 BMatC= 5.88D-10 BMatP= 6.31D-08
 IDIUse=1 WtCom= 1.00D+00 WtEn= 0.00D+00
 Coeff-Com:  0.110D-03-0.300D-03-0.444D-02 0.529D-01 0.952D+00
 Coeff:      0.110D-03-0.300D-03-0.444D-02 0.529D-01 0.952D+00
 Gap=     0.576 Goal=   None    Shift=    0.000
 RMSDP=8.78D-07 MaxDP=5.77D-06 DE=-9.34D-08 OVMax= 1.18D-05

 Initial convergence to 1.0D-05 achieved.  Increase integral accuracy.
 Cycle   6  Pass 1  IDiag  1:
 E= -40.4483600510494     Delta-E=       -0.000002011423 Rises=F Damp=F
 DIIS: error= 1.53D-05 at cycle   1 NSaved=   1.
 NSaved= 1 IEnMin= 1 EnMin= -40.4483600510494     IErMin= 1 ErrMin= 1.53D-05
 ErrMax= 1.53D-05  0.00D+00 EMaxC= 1.00D-01 BMatC= 1.20D-08 BMatP= 1.20D-08
 IDIUse=1 WtCom= 1.00D+00 WtEn= 0.00D+00
 Coeff-Com:  0.100D+01
 Coeff:      0.100D+01
 Gap=     0.576 Goal=   None    Shift=    0.000
 RMSDP=8.78D-07 MaxDP=5.77D-06 DE=-2.01D-06 OVMax= 3.88D-05

 Cycle   7  Pass 1  IDiag  1:
 E= -40.4483600631878     Delta-E=       -0.000000012138 Rises=F Damp=F
 DIIS: error= 1.66D-06 at cycle   2 NSaved=   2.
 NSaved= 2 IEnMin= 2 EnMin= -40.4483600631878     IErMin= 2 ErrMin= 1.66D-06
 ErrMax= 1.66D-06  0.00D+00 EMaxC= 1.00D-01 BMatC= 1.19D-10 BMatP= 1.20D-08
 IDIUse=1 WtCom= 1.00D+00 WtEn= 0.00D+00
 Coeff-Com: -0.330D-01 0.103D+01
 Coeff:     -0.330D-01 0.103D+01
 Gap=     0.576 Goal=   None    Shift=    0.000
 RMSDP=4.71D-07 MaxDP=3.77D-06 DE=-1.21D-08 OVMax= 5.07D-06

 Cycle   8  Pass 1  IDiag  1:
 E= -40.4483600633225     Delta-E=       -0.000000000135 Rises=F Damp=F
 DIIS: error= 7.02D-07 at cycle   3 NSaved=   3.
 NSaved= 3 IEnMin= 3 EnMin= -40.4483600633225     IErMin= 3 ErrMin= 7.02D-07
 ErrMax= 7.02D-07  0.00D+00 EMaxC= 1.00D-01 BMatC= 1.42D-11 BMatP= 1.19D-10
 IDIUse=1 WtCom= 1.00D+00 WtEn= 0.00D+00
 Coeff-Com: -0.156D-01 0.213D+00 0.803D+00
 Coeff:     -0.156D-01 0.213D+00 0.803D+00
 Gap=     0.576 Goal=   None    Shift=    0.000
 RMSDP=1.23D-07 MaxDP=1.53D-06 DE=-1.35D-10 OVMax= 1.96D-06

 Cycle   9  Pass 1  IDiag  1:
 E= -40.4483600633358     Delta-E=       -0.000000000013 Rises=F Damp=F
 DIIS: error= 2.81D-07 at cycle   4 NSaved=   4.
 NSaved= 4 IEnMin= 4 EnMin= -40.4483600633358     IErMin= 4 ErrMin= 2.81D-07
 ErrMax= 2.81D-07  0.00D+00 EMaxC= 1.00D-01 BMatC= 1.98D-12 BMatP= 1.42D-11
 IDIUse=1 WtCom= 1.00D+00 WtEn= 0.00D+00
 Coeff-Com: -0.277D-02 0.507D-02 0.266D+00 0.731D+00
 Coeff:     -0.277D-02 0.507D-02 0.266D+00 0.731D+00
 Gap=     0.576 Goal=   None    Shift=    0.000
 RMSDP=3.90D-08 MaxDP=4.77D-07 DE=-1.33D-11 OVMax= 6.01D-07

 Cycle  10  Pass 1  IDiag  1:
 E= -40.4483600633380     Delta-E=       -0.000000000002 Rises=F Damp=F
 DIIS: error= 3.41D-08 at cycle   5 NSaved=   5.
 NSaved= 5 IEnMin= 5 EnMin= -40.4483600633380     IErMin= 5 ErrMin= 3.41D-08
 ErrMax= 3.41D-08  0.00D+00 EMaxC= 1.00D-01 BMatC= 4.49D-14 BMatP= 1.98D-12
 IDIUse=1 WtCom= 1.00D+00 WtEn= 0.00D+00
 Coeff-Com:  0.264D-03-0.109D-01 0.584D-03 0.119D+00 0.891D+00
 Coeff:      0.264D-03-0.109D-01 0.584D-03 0.119D+00 0.891D+00
 Gap=     0.576 Goal=   None    Shift=    0.000
 RMSDP=7.89D-09 MaxDP=5.54D-08 DE=-2.22D-12 OVMax= 1.20D-07

 SCF Done:  E(RM062X) =  -40.4483600633     A.U. after   10 cycles
            NFock= 10  Conv=0.79D-08     -V/T= 2.0116
 KE= 3.998608219545D+01 PE=-1.201814881777D+02 EE= 2.606863719185D+01
 Leave Link  502 at Mon Sep  5 11:45:02 2022, MaxMem=   262144000 cpu:               2.3 elap:               2.3
 (Enter /binaries/g16/l801.exe)
 DoSCS=F DFT=T ScalE2(SS,OS)=  1.000000  1.000000
 Range of M.O.s used for correlation:     1    34
 NBasis=    34 NAE=     5 NBE=     5 NFC=     0 NFV=     0
 NROrb=     34 NOA=     5 NOB=     5 NVA=    29 NVB=    29
 Leave Link  801 at Mon Sep  5 11:45:02 2022, MaxMem=   262144000 cpu:               0.0 elap:               0.0
 (Enter /binaries/g16/l1101.exe)
 Using compressed storage, NAtomX=     5.
 Will process      6 centers per pass.
   1 Symmetry operations used in ECPInt.
 ECPInt:  NShTT=     171 NPrTT=     553 LenC2=     172 LenP2D=     543.
 LDataN:  DoStor=T MaxTD1= 5 Len=  102
 Leave Link 1101 at Mon Sep  5 11:45:02 2022, MaxMem=   262144000 cpu:               0.0 elap:               0.0
 (Enter /binaries/g16/l1102.exe)
 Symmetrizing basis deriv contribution to polar:
 IMax=3 JMax=2 DiffMx= 0.00D+00
 Leave Link 1102 at Mon Sep  5 11:45:02 2022, MaxMem=   262144000 cpu:               0.0 elap:               0.0
 (Enter /binaries/g16/l1110.exe)
 Forming Gx(P) for the SCF density, NAtomX=     5.
 Integral derivatives from FoFJK, PRISM(SPDF).
 Do as many integral derivatives as possible in FoFJK.
 G2DrvN: MDV=     262143349.
 G2DrvN: will do     6 centers at a time, making    1 passes.
 Calling FoFCou, ICntrl=  3107 FMM=F I1Cent=   0 AccDes= 0.00D+00.
 FoFJK:  IHMeth= 1 ICntrl=    3107 DoSepK=F KAlg= 0 I1Cent=           0 FoldK=F
 IRaf=         0 NMat=       1 IRICut=       1 DoRegI=T DoRafI=F ISym2E= 0 IDoP0=0 IntGTp=1.
 FoFCou: FMM=F IPFlag=           0 FMFlag=      100000 FMFlg1=           0
         NFxFlg=           0 DoJE=F BraDBF=F KetDBF=F FulRan=T
         wScrn=  0.000000 ICntrl=      3107 IOpCl=  0 I1Cent=           0 NGrid=           0
         NMat0=    1 NMatS0=      1 NMatT0=    0 NMatD0=    1 NMtDS0=    0 NMtDT0=    0
 Symmetry not used in FoFCou.
 End of G2Drv F.D. properties file   721 does not exist.
 End of G2Drv F.D. properties file   722 does not exist.
 End of G2Drv F.D. properties file   788 does not exist.
 Leave Link 1110 at Mon Sep  5 11:45:04 2022, MaxMem=   262144000 cpu:               2.3 elap:               2.3
 (Enter /binaries/g16/l1002.exe)
 Minotr:  Closed shell wavefunction.
          IDoAtm=11111
          Direct CPHF calculation.
          Differentiating once with respect to electric field.
                with respect to dipole field.
          Differentiating once with respect to nuclear coordinates.
          Requested convergence is 1.0D-08 RMS, and 1.0D-07 maximum.
          Secondary convergence is 1.0D-12 RMS, and 1.0D-12 maximum.
          NewPWx=T KeepS1=F KeepF1=F KeepIn=T MapXYZ=F SortEE=F KeepMc=T.
         1449 words used for storage of precomputed grid.
 Keep R1 ints in memory in canonical form, NReq=1043774.
 FoFCou: FMM=F IPFlag=           0 FMFlag=           0 FMFlg1=           0
         NFxFlg=           0 DoJE=F BraDBF=F KetDBF=F FulRan=T
         wScrn=  0.000000 ICntrl=       600 IOpCl=  0 I1Cent=           0 NGrid=           0
         NMat0=    1 NMatS0=    595 NMatT0=    0 NMatD0=    1 NMtDS0=    0 NMtDT0=    0
 Symmetry not used in FoFCou.
 Two-electron integral symmetry not used.
          MDV=     262144000 using IRadAn=       1.
          Solving linear equations simultaneously, MaxMat=       0.
          There are    18 degrees of freedom in the 1st order CPHF.  IDoFFX=6 NUNeed=     3.
     15 vectors produced by pass  0 Test12= 8.06D-16 5.56D-09 XBig12= 4.15D+00 1.16D+00.
 AX will form    15 AO Fock derivatives at one time.
     15 vectors produced by pass  1 Test12= 8.06D-16 5.56D-09 XBig12= 7.92D-02 1.24D-01.
     15 vectors produced by pass  2 Test12= 8.06D-16 5.56D-09 XBig12= 4.34D-04 1.04D-02.
     15 vectors produced by pass  3 Test12= 8.06D-16 5.56D-09 XBig12= 5.00D-07 2.71D-04.
     15 vectors produced by pass  4 Test12= 8.06D-16 5.56D-09 XBig12= 3.36D-10 7.59D-06.
      5 vectors produced by pass  5 Test12= 8.06D-16 5.56D-09 XBig12= 1.75D-13 2.53D-07.
 InvSVY:  IOpt=1 It=  1 EMax= 1.55D-15
 Solved reduced A of dimension    80 with    15 vectors.
 FullF1:  Do perturbations      1 to       3.
 Isotropic polarizability for W=    0.000000       12.37 Bohr**3.
 End of Minotr F.D. properties file   721 does not exist.
 End of Minotr F.D. properties file   722 does not exist.
 End of Minotr F.D. properties file   788 does not exist.
 Leave Link 1002 at Mon Sep  5 11:45:07 2022, MaxMem=   262144000 cpu:               2.4 elap:               2.5
 (Enter /binaries/g16/l601.exe)
 Copying SCF densities to generalized density rwf, IOpCl= 0 IROHF=0.

 **********************************************************************

            Population analysis using the SCF Density.

 **********************************************************************

 Orbital symmetries:
       Occupied  (A) (A) (A) (A) (A)
       Virtual   (A) (A) (A) (A) (A) (A) (A) (A) (A) (A) (A) (A)
                 (A) (A) (A) (A) (A) (A) (A) (A) (A) (A) (A) (A)
                 (A) (A) (A) (A) (A)
 The electronic state is 1-A.
 Alpha  occ. eigenvalues --  -10.52652  -0.78078  -0.45735  -0.45678  -0.45573
 Alpha virt. eigenvalues --    0.11978   0.19269   0.19339   0.19369   0.46522
 Alpha virt. eigenvalues --    0.46541   0.46578   0.72598   0.75644   0.75852
 Alpha virt. eigenvalues --    0.75954   0.85111   1.15610   1.15652   1.60335
 Alpha virt. eigenvalues --    1.60340   1.60471   1.83696   1.84044   1.84142
 Alpha virt. eigenvalues --    2.19177   2.19222   2.19422   2.58882   2.58930
 Alpha virt. eigenvalues --    2.67783   2.96644   2.97211   2.97482
          Condensed to atoms (all electrons):
               1          2          3          4          5
     1  C    4.534894   0.411175   0.411571   0.410580   0.411179
     2  H    0.411175   0.603658  -0.019804  -0.019907  -0.019804
     3  H    0.411571  -0.019804   0.603372  -0.019783  -0.019803
     4  H    0.410580  -0.019907  -0.019783   0.603433  -0.019905
     5  H    0.411179  -0.019804  -0.019803  -0.019905   0.603645
 Mulliken charges:
               1
     1  C   -0.179399
     2  H    0.044682
     3  H    0.044446
     4  H    0.045582
     5  H    0.044688
 Sum of Mulliken charges =   0.00000
 Mulliken charges with hydrogens summed into heavy atoms:
               1
     1  C    0.000000
 APT charges:
               1
     1  C   -0.084138
     2  H    0.021189
     3  H    0.021301
     4  H    0.020439
     5  H    0.021209
 Sum of APT charges =   0.00000
 APT charges with hydrogens summed into heavy atoms:
               1
     1  C    0.000000
 Electronic spatial extent (au):  <R**2>=             34.7146
 Charge=              0.0000 electrons
 Dipole moment (field-independent basis, Debye):
    X=             -0.0022    Y=             -0.0000    Z=             -0.0002  Tot=              0.0022
 Quadrupole moment (field-independent basis, Debye-Ang):
   XX=             -8.2221   YY=             -8.2238   ZZ=             -8.2232
   XY=             -0.0000   XZ=             -0.0031   YZ=             -0.0001
 Traceless Quadrupole moment (field-independent basis, Debye-Ang):
   XX=              0.0009   YY=             -0.0008   ZZ=             -0.0002
   XY=             -0.0000   XZ=             -0.0031   YZ=             -0.0001
 Octapole moment (field-independent basis, Debye-Ang**2):
  XXX=              0.6699  YYY=              0.0127  ZZZ=              0.4262  XYY=             -0.3205
  XXY=              0.0025  XXZ=              0.0785  XZZ=             -0.3690  YZZ=             -0.0153
  YYZ=             -0.5004  XYZ=              0.0020
 Hexadecapole moment (field-independent basis, Debye-Ang**3):
 XXXX=            -14.5876 YYYY=            -14.7495 ZZZZ=            -14.7950 XXXY=              0.0020
 XXXZ=              0.0377 YYYX=             -0.0107 YYYZ=              0.0010 ZZZX=             -0.3411
 ZZZY=              0.0008 XXYY=             -5.1795 XXZZ=             -5.1025 YYZZ=             -4.8769
 XXYZ=             -0.0021 YYXZ=              0.2894 ZZXY=              0.0087
 N-N= 1.367840872710D+01 E-N=-1.201814890313D+02  KE= 3.998608219545D+01
  Exact polarizability:      12.440       0.001      12.330      -0.003      -0.000      12.337
 Approx polarizability:      12.514       0.000      12.445       0.009       0.000      12.409
 No NMR shielding tensors so no spin-rotation constants.
 Leave Link  601 at Mon Sep  5 11:45:07 2022, MaxMem=   262144000 cpu:               0.0 elap:               0.0
 (Enter /binaries/g16/l701.exe)
 ... and contract with generalized density number  0.
 Compute integral second derivatives.
   1 Symmetry operations used in ECPInt.
 ECPInt:  NShTT=     171 NPrTT=     553 LenC2=     172 LenP2D=     543.
 LDataN:  DoStor=T MaxTD1= 6 Len=  172
 Leave Link  701 at Mon Sep  5 11:45:07 2022, MaxMem=   262144000 cpu:               0.1 elap:               0.1
 (Enter /binaries/g16/l702.exe)
 L702 exits ... SP integral derivatives will be done elsewhere.
 Leave Link  702 at Mon Sep  5 11:45:07 2022, MaxMem=   262144000 cpu:               0.0 elap:               0.0
 (Enter /binaries/g16/l703.exe)
 Integral derivatives from FoFJK, PRISM(SPDF).
 Compute integral second derivatives, UseDBF=F ICtDFT=           0.
 Calling FoFJK, ICntrl=    100127 FMM=F ISym2X=0 I1Cent= 0 IOpClX= 0 NMat=1 NMatS=1 NMatT=0.
 FoFJK:  IHMeth= 1 ICntrl=  100127 DoSepK=F KAlg= 0 I1Cent=           0 FoldK=F
 IRaf=         0 NMat=       1 IRICut=       1 DoRegI=T DoRafI=F ISym2E= 0 IDoP0=0 IntGTp=1.
 FoFCou: FMM=F IPFlag=           0 FMFlag=      100000 FMFlg1=         800
         NFxFlg=           0 DoJE=F BraDBF=F KetDBF=F FulRan=T
         wScrn=  0.000000 ICntrl=    100127 IOpCl=  0 I1Cent=           0 NGrid=           0
         NMat0=    1 NMatS0=      1 NMatT0=    0 NMatD0=    1 NMtDS0=    0 NMtDT0=    0
 Symmetry not used in FoFCou.
 Leave Link  703 at Mon Sep  5 11:45:11 2022, MaxMem=   262144000 cpu:               3.6 elap:               3.6
 (Enter /binaries/g16/l716.exe)
 Dipole        =-8.50706640D-04-1.18319249D-05-7.06673893D-05
 Polarizability= 1.24402419D+01 5.78898636D-04 1.23300970D+01
                -2.73969044D-03-6.31604520D-05 1.23368213D+01
 Full mass-weighted force constant matrix:
 Low frequencies --- -504.0049 -487.6153 -479.9993    0.0006    0.0010    0.0012
 Low frequencies --- 1245.4947 1253.3102 1256.7404
 Diagonal vibrational polarizability:
        0.3691820       0.3721553       0.3695375
 Harmonic frequencies (cm**-1), IR intensities (KM/Mole), Raman scattering
 activities (A**4/AMU), depolarization ratios for plane and unpolarized
 incident light, reduced masses (AMU), force constants (mDyne/A),
 and normal coordinates:
                      1                      2                      3
                      A                      A                      A
 Frequencies --   1245.4635              1253.1667              1256.6331
 Red. masses --      1.1773                 1.1767                 1.1764
 Frc consts  --      1.0760                 1.0887                 1.0945
 IR Inten    --     19.8120                20.2960                20.2339
  Atom  AN      X      Y      Z        X      Y      Z        X      Y      Z
     1   6    -0.12   0.00  -0.02    -0.00  -0.12  -0.00     0.02   0.00  -0.12
     2   1     0.51  -0.22  -0.02    -0.17   0.13  -0.28    -0.20  -0.25   0.45
     3   1     0.54  -0.00   0.25     0.00   0.61   0.01     0.15  -0.00  -0.04
     4   1    -0.10  -0.00   0.08    -0.00   0.59   0.01    -0.02  -0.01   0.59
     5   1     0.51   0.22  -0.02     0.17   0.13   0.29    -0.20   0.24   0.45
                      4                      5                      6
                      A                      A                      A
 Frequencies --   1514.7859              1515.2451              3278.5377
 Red. masses --      1.0078                 1.0079                 1.0103
 Frc consts  --      1.3625                 1.3634                 6.3982
 IR Inten    --      0.0040                 0.0118                 0.3561
  Atom  AN      X      Y      Z        X      Y      Z        X      Y      Z
     1   6     0.00  -0.00  -0.00     0.00  -0.00   0.00    -0.01  -0.00   0.00
     2   1    -0.24   0.29  -0.33    -0.42  -0.01   0.27    -0.14  -0.38  -0.23
     3   1     0.46  -0.02   0.19    -0.02  -0.49  -0.01    -0.16  -0.00   0.38
     4   1    -0.03   0.02   0.50    -0.00   0.51  -0.02     0.63   0.00   0.03
     5   1    -0.20  -0.28  -0.35     0.44   0.02  -0.25    -0.15   0.38  -0.22
                      7                      8                      9
                      A                      A                      A
 Frequencies --   3421.0629              3453.0987              3471.4078
 Red. masses --      1.1007                 1.1036                 1.1034
 Frc consts  --      7.5898                 7.7534                 7.8343
 IR Inten    --     11.1055                10.7324                10.6147
  Atom  AN      X      Y      Z        X      Y      Z        X      Y      Z
     1   6    -0.09  -0.00  -0.02     0.00  -0.09  -0.00     0.02   0.00  -0.09
     2   1     0.12   0.35   0.21     0.22   0.57   0.36     0.10   0.27   0.15
     3   1     0.08   0.00  -0.22    -0.00  -0.01   0.00    -0.34  -0.01   0.81
     4   1     0.76   0.00   0.04    -0.00  -0.01  -0.00    -0.09   0.00  -0.02
     5   1     0.12  -0.35   0.20    -0.22   0.57  -0.35     0.10  -0.27   0.15

 -------------------
 - Thermochemistry -
 -------------------
 Temperature   298.150 Kelvin.  Pressure   1.00000 Atm.
 Atom     1 has atomic number  6 and mass  12.00000
 Atom     2 has atomic number  1 and mass   1.00783
 Atom     3 has atomic number  1 and mass   1.00783
 Atom     4 has atomic number  1 and mass   1.00783
 Atom     5 has atomic number  1 and mass   1.00783
 Molecular mass:    16.03130 amu.
 Principal axes and moments of inertia in atomic units:
                           1         2         3
     Eigenvalues --    10.97572  11.00768  11.02027
           X            1.00000   0.00000   0.00011
           Y           -0.00000   1.00000  -0.00000
           Z           -0.00011   0.00000   1.00000
 This molecule is an asymmetric top.
 Rotational symmetry number  1.
 Rotational temperatures (Kelvin)      7.89141     7.86850     7.85951
 Rotational constants (GHZ):         164.43032   163.95293   163.76554
 Zero-point vibrational energy     122075.3 (Joules/Mol)
                                   29.17670 (Kcal/Mol)
 Vibrational temperatures:   1791.94  1803.03  1808.01  2179.44  2180.10
          (Kelvin)           4717.08  4922.15  4968.24  4994.58
 
 Zero-point correction=                           0.046496 (Hartree/Particle)
 Thermal correction to Energy=                    0.049379
 Thermal correction to Enthalpy=                  0.050323
 Thermal correction to Gibbs Free Energy=         0.026882
 Sum of electronic and zero-point Energies=            -40.401864
 Sum of electronic and thermal Energies=               -40.398981
 Sum of electronic and thermal Enthalpies=             -40.398037
 Sum of electronic and thermal Free Energies=          -40.421478
 
                     E (Thermal)             CV                S
                      KCal/Mol        Cal/Mol-Kelvin    Cal/Mol-Kelvin
 Total                   30.986              6.624             49.334
 Electronic               0.000              0.000              0.000
 Translational            0.889              2.981             34.261
 Rotational               0.889              2.981             14.951
 Vibrational             29.208              0.663              0.122
                       Q            Log10(Q)             Ln(Q)
 Total Bot       0.431445D-12        -12.365074        -28.471635
 Total V=0       0.105099D+10          9.021600         20.773001
 Vib (Bot)       0.414012D-21        -21.382987        -49.236148
 Vib (V=0)       0.100852D+01          0.003686          0.008488
 Electronic      0.100000D+01          0.000000          0.000000
 Translational   0.252294D+07          6.401907         14.740936
 Rotational      0.413053D+03          2.616006          6.023577
 
                                                       File created by ccinput
                                                             IR Spectrum
 
     333     3                                                               1       111                                             
     444     2                                                               5       222                                             
     752     7                                                               1       554                                             
     131     9                                                               5       735                                             
 
     XXX     X                                                                       XXX                                             
     XXX                                                                             XXX                                             
     XXX                                                                             XXX                                             
     XXX                                                                             XXX                                             
     XXX                                                                             XXX                                             
     XXX                                                                             XXX                                             
     XXX                                                                             XXX                                             
     XXX                                                                             XXX                                             
     XXX                                                                             XXX                                             
     XXX                                                                             XXX                                             
      XX                                                                             XXX                                             
                                                                                     XXX                                             
                                                                                     XXX                                             
                                                                                     XXX                                             
                                                                                     XXX                                             
                                                                                     XXX                                             
                                                                                     XXX                                             
                                                                                     XXX                                             
                                                                                     XXX                                             
                                                                                     XXX                                             
 
 ***** Axes restored to original set *****
 -------------------------------------------------------------------
 Center     Atomic                   Forces (Hartrees/Bohr)
 Number     Number              X              Y              Z
 -------------------------------------------------------------------
      1        6           0.000546525    0.000752761   -0.004608264
      2        1           0.006362570   -0.018037384    0.000029217
      3        1           0.007056772    0.009987389    0.017008797
      4        1           0.005164487    0.007308378   -0.012458431
      5        1          -0.019130354   -0.000011144    0.000028682
 -------------------------------------------------------------------
 Cartesian Forces:  Max     0.019130354 RMS     0.009757203
 Z-matrix is all fixed cartesians, so copy forces.
 Force constants in Cartesian coordinates: 
                1             2             3             4             5 
      1  0.624005D+00
      2 -0.130259D-02  0.623041D+00
      3  0.602117D-02  0.850120D-02  0.620814D+00
      4 -0.778908D-01  0.110469D+00 -0.866600D-04  0.786844D-01
      5  0.110521D+00 -0.351182D+00 -0.278052D-03 -0.117941D+00  0.370433D+00
      6 -0.175172D-03 -0.254608D-04 -0.387830D-01  0.641212D-04  0.131311D-03
      7 -0.781896D-01 -0.564775D-01 -0.975645D-01  0.329136D-02  0.504889D-02
      8 -0.564725D-01 -0.118163D+00 -0.138002D+00 -0.125314D-01 -0.112941D-01
      9 -0.976754D-01 -0.138175D+00 -0.276267D+00  0.142747D-02  0.286293D-02
     10 -0.775868D-01 -0.527533D-01  0.918910D-01  0.323387D-02  0.490772D-02
     11 -0.527501D-01 -0.114880D+00  0.129946D+00 -0.123838D-01 -0.111967D-01
     12  0.918380D-01  0.129872D+00 -0.267011D+00 -0.138054D-02 -0.270197D-02
     13 -0.390338D+00  0.644341D-04 -0.261061D-03 -0.731891D-02 -0.253671D-02
     14  0.374021D-05 -0.388162D-01 -0.167582D-03  0.323876D-01  0.324004D-02
     15 -0.861264D-05 -0.172629D-03 -0.387540D-01 -0.243881D-04 -0.142113D-04
                6             7             8             9            10 
      6  0.370065D-01
      7  0.115225D-01  0.789694D-01
      8 -0.256956D-01  0.602601D-01  0.121607D+00
      9  0.197988D-02  0.104040D+00  0.147158D+00  0.290071D+00
     10 -0.114034D-01  0.325323D-02  0.745161D-02 -0.100090D-01  0.783461D-01
     11  0.256187D-01  0.745305D-02  0.852915D-02 -0.141496D-01  0.564799D-01
     12  0.182677D-02  0.100689D-01  0.142374D-01 -0.177640D-01 -0.984372D-01
     13 -0.800714D-05 -0.732432D-02  0.129224D-02  0.221693D-02 -0.724641D-02
     14 -0.290203D-04 -0.162846D-01 -0.678713D-03  0.230305D-02 -0.160859D-01
     15 -0.203011D-02 -0.280669D-01  0.230126D-02  0.197958D-02  0.279586D-01
               11            12            13            14            15 
     11  0.118269D+00
     12 -0.139204D+00  0.281125D+00
     13  0.120090D-02 -0.208922D-02  0.412228D+00
     14 -0.721692D-03 -0.220311D-02 -0.208669D-04  0.369766D-01
     15 -0.221107D-02  0.182279D-02  0.141353D-03  0.966528D-04  0.369817D-01
 Leave Link  716 at Mon Sep  5 11:45:11 2022, MaxMem=   262144000 cpu:               0.0 elap:               0.0
 (Enter /binaries/g16/l103.exe)

 GradGradGradGradGradGradGradGradGradGradGradGradGradGradGradGradGradGrad
 Berny optimization.
 Search for a local minimum.
 Step number   1 out of a maximum of    2
 All quantities printed in internal units (Hartrees-Bohrs-Radians)
 Second derivative matrix not updated -- analytic derivatives used.
 The second derivative matrix:
                          X1        Y1        Z1        X2        Y2
           X1           0.62401
           Y1          -0.00130   0.62304
           Z1           0.00602   0.00850   0.62081
           X2          -0.07789   0.11047  -0.00009   0.07868
           Y2           0.11052  -0.35118  -0.00028  -0.11794   0.37043
           Z2          -0.00018  -0.00003  -0.03878   0.00006   0.00013
           X3          -0.07819  -0.05648  -0.09756   0.00329   0.00505
           Y3          -0.05647  -0.11816  -0.13800  -0.01253  -0.01129
           Z3          -0.09768  -0.13817  -0.27627   0.00143   0.00286
           X4          -0.07759  -0.05275   0.09189   0.00323   0.00491
           Y4          -0.05275  -0.11488   0.12995  -0.01238  -0.01120
           Z4           0.09184   0.12987  -0.26701  -0.00138  -0.00270
           X5          -0.39034   0.00006  -0.00026  -0.00732  -0.00254
           Y5           0.00000  -0.03882  -0.00017   0.03239   0.00324
           Z5          -0.00001  -0.00017  -0.03875  -0.00002  -0.00001
                          Z2        X3        Y3        Z3        X4
           Z2           0.03701
           X3           0.01152   0.07897
           Y3          -0.02570   0.06026   0.12161
           Z3           0.00198   0.10404   0.14716   0.29007
           X4          -0.01140   0.00325   0.00745  -0.01001   0.07835
           Y4           0.02562   0.00745   0.00853  -0.01415   0.05648
           Z4           0.00183   0.01007   0.01424  -0.01776  -0.09844
           X5          -0.00001  -0.00732   0.00129   0.00222  -0.00725
           Y5          -0.00003  -0.01628  -0.00068   0.00230  -0.01609
           Z5          -0.00203  -0.02807   0.00230   0.00198   0.02796
                          Y4        Z4        X5        Y5        Z5
           Y4           0.11827
           Z4          -0.13920   0.28113
           X5           0.00120  -0.00209   0.41223
           Y5          -0.00072  -0.00220  -0.00002   0.03698
           Z5          -0.00221   0.00182   0.00014   0.00010   0.03698
 ITU=  0
     Eigenvalues ---    0.08750   0.08753   0.09792   0.09903   0.09947
     Eigenvalues ---    0.41088   0.83821   0.85681   0.86628
 Angle between quadratic step and forces=   6.31 degrees.
 Linear search not attempted -- first point.
 B after Tr=    -0.000008   -0.000024   -0.000702
         Rot=    1.000000   -0.000000    0.000000   -0.000000 Ang=  -0.00 deg.
 Variable       Old X    -DE/DX   Delta X   Delta X   Delta X     New X
                                 (Linear)    (Quad)   (Total)
    X1        8.11033   0.00055   0.00000  -0.00003  -0.00003   8.11029
    Y1        6.91413   0.00075   0.00000  -0.00008  -0.00011   6.91402
    Z1        0.00000  -0.00461   0.00000  -0.00242  -0.00312  -0.00312
    X2        8.78439   0.00636   0.00000   0.01544   0.01544   8.79983
    Y2        5.00777  -0.01804   0.00000  -0.04378  -0.04380   4.96397
    Z2        0.00000   0.00003   0.00000  -0.00022  -0.00092  -0.00092
    X3        8.78439   0.00706   0.00000   0.01696   0.01695   8.80134
    Y3        7.86731   0.00999   0.00000   0.02406   0.02403   7.89134
    Z3        1.64538   0.01701   0.00000   0.03822   0.03752   1.68291
    X4        8.78439   0.00516   0.00000   0.01405   0.01404   8.79843
    Y4        7.86731   0.00731   0.00000   0.01992   0.01989   7.88720
    Z4       -1.66239  -0.01246   0.00000  -0.03187  -0.03257  -1.69497
    X5        6.08832  -0.01913   0.00000  -0.04638  -0.04639   6.04193
    Y5        6.91413  -0.00001   0.00000   0.00001  -0.00001   6.91412
    Z5        0.00000   0.00003   0.00000  -0.00021  -0.00091  -0.00091
         Item               Value     Threshold  Converged?
 Maximum Force            0.019130     0.000450     NO 
 RMS     Force            0.009757     0.000300     NO 
 Maximum Displacement     0.046390     0.001800     NO 
 RMS     Displacement     0.023448     0.001200     NO 
 Predicted change in Energy=-1.705749D-03
 GradGradGradGradGradGradGradGradGradGradGradGradGradGradGradGradGradGrad

 Leave Link  103 at Mon Sep  5 11:45:11 2022, MaxMem=   262144000 cpu:               0.0 elap:               0.0
 (Enter /binaries/g16/l9999.exe)

 ----------------------------------------------------------------------

 Electric dipole moment (input orientation):
 (Debye = 10**-18 statcoulomb cm , SI units = C m)
                  (au)            (Debye)         (10**-30 SI)
   Tot        0.853719D-03      0.216994D-02      0.723813D-02
   x         -0.286133D-03     -0.727279D-03     -0.242594D-02
   y         -0.422687D-03     -0.107436D-02     -0.358369D-02
   z          0.684324D-03      0.173938D-02      0.580194D-02

 Dipole polarizability, Alpha (input orientation).
 (esu units = cm**3 , SI units = C**2 m**2 J**-1)
 Alpha(0;0):
               (au)            (10**-24 esu)      (10**-40 SI)
   iso        0.123691D+02      0.183290D+01      0.203938D+01
   aniso      0.107051D+00      0.158634D-01      0.176504D-01
   xx         0.123410D+02      0.182875D+01      0.203476D+01
   yx         0.156269D-01      0.231566D-02      0.257652D-02
   yy         0.123524D+02      0.183044D+01      0.203664D+01
   zx        -0.259396D-01     -0.384386D-02     -0.427687D-02
   zy        -0.370779D-01     -0.549438D-02     -0.611333D-02
   zz         0.124137D+02      0.183952D+01      0.204674D+01

 ----------------------------------------------------------------------

 Dipole orientation:
     6          6.96776918          5.22630036         -6.14154438
     1          7.77539845          3.51725045         -5.42360322
     1          8.06347721          6.80234501         -5.52048919
     1          6.95483844          5.16462133         -8.17193546
     1          5.07183955          5.41254661         -5.46384586

 Electric dipole moment (dipole orientation):
 (Debye = 10**-18 statcoulomb cm , SI units = C m)
                  (au)            (Debye)         (10**-30 SI)
   Tot        0.853719D-03      0.216994D-02      0.723813D-02
   x          0.000000D+00      0.000000D+00      0.000000D+00
   y          0.000000D+00      0.000000D+00      0.000000D+00
   z          0.853719D-03      0.216994D-02      0.723813D-02

 Dipole polarizability, Alpha (dipole orientation).
 (esu units = cm**3 , SI units = C**2 m**2 J**-1)
 Alpha(0;0):
               (au)            (10**-24 esu)      (10**-40 SI)
   iso        0.123691D+02      0.183290D+01      0.203938D+01
   aniso      0.107051D+00      0.158634D-01      0.176504D-01
   xx         0.123326D+02      0.182750D+01      0.203337D+01
   yx         0.365943D-02      0.542272D-03      0.603359D-03
   yy         0.123355D+02      0.182793D+01      0.203385D+01
   zx         0.558031D-02      0.826916D-03      0.920068D-03
   zy         0.979601D-02      0.145162D-02      0.161514D-02
   zz         0.124391D+02      0.184328D+01      0.205093D+01

 ----------------------------------------------------------------------
 Unable to Open any file for archive entry.
 1\1\GINC-WEB\Freq\RM062X\def2SVP\C1H4\CALCUS\05-Sep-2022\0\\#p freq M0
 62X/Def2SVP\\File created by ccinput\\0,1\C,4.2918,3.6588,0.\H,4.6485,
 2.65,0.\H,4.6485,4.1632,0.8707\H,4.6485,4.1632,-0.8797\H,3.2218,3.6588
 ,0.\\Version=ES64L-G16RevC.01\State=1-A\HF=-40.4483601\RMSD=7.892e-09\
 RMSF=9.757e-03\ZeroPoint=0.046496\Thermal=0.0493787\ETot=-40.3989814\H
 Tot=-40.3980372\GTot=-40.4214776\Dipole=-0.0002861,-0.0004227,0.000684
 3\DipoleDeriv=-0.0854528,0.0007875,-0.0015238,0.0008291,-0.0848746,-0.
 0020812,-0.0013401,-0.0019276,-0.0820868,0.0620083,0.0572611,-0.000136
 4,0.0572056,-0.0801086,0.0004602,-0.0001176,0.0009628,0.0816673,0.0618
 012,-0.0285877,-0.0490835,-0.0285784,0.0416404,-0.0694904,-0.0497347,-
 0.0703566,-0.0395398,0.0619169,-0.0293584,0.0502358,-0.0293417,0.04112
 63,0.071067,0.0502692,0.0711002,-0.041725,-0.1002736,-0.0001024,0.0005
 08,-0.0001146,0.0822165,0.0000445,0.0009232,0.0002213,0.0816843\Polar=
 12.3410343,0.0156269,12.352414,-0.0259396,-0.0370779,12.413712\Quadrup
 ole=-0.0009839,-0.0015664,0.0025503,-0.0006411,0.0003745,0.0005315\PG=
 C01 [X(C1H4)]\NImag=0\\0.62400540,-0.00130259,0.62304124,0.00602117,0.
 00850120,0.62081445,-0.07789076,0.11046895,-0.00008666,0.07868444,0.11
 052141,-0.35118194,-0.00027805,-0.11794131,0.37043270,-0.00017517,-0.0
 0002546,-0.03878303,0.00006412,0.00013131,0.03700649,-0.07818962,-0.05
 647745,-0.09756445,0.00329136,0.00504889,0.01152249,0.07896935,-0.0564
 7249,-0.11816343,-0.13800154,-0.01253143,-0.01129410,-0.02569557,0.060
 26007,0.12160709,-0.09767537,-0.13817480,-0.27626675,0.00142747,0.0028
 6293,0.00197988,0.10403996,0.14715846,0.29007133,-0.07758679,-0.052753
 34,0.09189101,0.00323387,0.00490772,-0.01140343,0.00325323,0.00745161,
 -0.01000900,0.07834610,-0.05275008,-0.11487969,0.12994597,-0.01238378,
 -0.01119670,0.02561874,0.00745305,0.00852915,-0.01414964,0.05647991,0.
 11826893,0.09183798,0.12987169,-0.26701072,-0.00138054,-0.00270197,0.0
 0182677,0.01006894,0.01423739,-0.01776405,-0.09843716,-0.13920400,0.28
 112521,-0.39033823,0.00006443,-0.00026106,-0.00731891,-0.00253671,-0.0
 0000801,-0.00732432,0.00129224,0.00221693,-0.00724641,0.00120090,-0.00
 208922,0.41222786,0.00000374,-0.03881618,-0.00016758,0.03238758,0.0032
 4004,-0.00002902,-0.01628456,-0.00067871,0.00230305,-0.01608589,-0.000
 72169,-0.00220311,-0.00002087,0.03697655,-0.00000861,-0.00017263,-0.03
 875395,-0.00002439,-0.00001421,-0.00203011,-0.02806693,0.00230126,0.00
 197958,0.02795858,-0.00221107,0.00182279,0.00014135,0.00009665,0.03698
 169\\-0.00054653,-0.00075276,0.00460826,-0.00636257,0.01803738,-0.0000
 2922,-0.00705677,-0.00998739,-0.01700880,-0.00516449,-0.00730838,0.012
 45843,0.01913035,0.00001114,-0.00002868\\\@
 The archive entry for this job was punched.


 THERE ARE PEOPLE SO ADDICTED TO EXAGERATING THEY
 CAN'T TELL THE TRUTH WITHOUT LYING. -- FORTUNE COOKIE
 Job cpu time:       0 days  0 hours  0 minutes 11.4 seconds.
 Elapsed time:       0 days  0 hours  0 minutes 11.4 seconds.
 File lengths (MBytes):  RWF=      6 Int=      0 D2E=      0 Chk=      1 Scr=      1
 Normal termination of Gaussian 16 at Mon Sep  5 11:45:11 2022.
