 Entering Gaussian System, Link 0=g16
 Input=calc.com
 Output=calc.log
 Initial command:
 /binaries/g16/l1.exe "/calcus/scratch/scr/5/Gau-163.inp" -scrdir="/calcus/scratch/scr/5/"
 Entering Link 1 = /binaries/g16/l1.exe PID=       165.
  
 Copyright (c) 1988-2019, Gaussian, Inc.  All Rights Reserved.
  
 This is part of the Gaussian(R) 16 program.  It is based on
 the Gaussian(R) 09 system (copyright 2009, Gaussian, Inc.),
 the Gaussian(R) 03 system (copyright 2003, Gaussian, Inc.),
 the Gaussian(R) 98 system (copyright 1998, Gaussian, Inc.),
 the Gaussian(R) 94 system (copyright 1995, Gaussian, Inc.),
 the Gaussian 92(TM) system (copyright 1992, Gaussian, Inc.),
 the Gaussian 90(TM) system (copyright 1990, Gaussian, Inc.),
 the Gaussian 88(TM) system (copyright 1988, Gaussian, Inc.),
 the Gaussian 86(TM) system (copyright 1986, Carnegie Mellon
 University), and the Gaussian 82(TM) system (copyright 1983,
 Carnegie Mellon University). Gaussian is a federally registered
 trademark of Gaussian, Inc.
  
 This software contains proprietary and confidential information,
 including trade secrets, belonging to Gaussian, Inc.
  
 This software is provided under written license and may be
 used, copied, transmitted, or stored only in accord with that
 written license.
  
 The following legend is applicable only to US Government
 contracts under FAR:
  
                    RESTRICTED RIGHTS LEGEND
  
 Use, reproduction and disclosure by the US Government is
 subject to restrictions as set forth in subparagraphs (a)
 and (c) of the Commercial Computer Software - Restricted
 Rights clause in FAR 52.227-19.
  
 Gaussian, Inc.
 340 Quinnipiac St., Bldg. 40, Wallingford CT 06492
  
  
 ---------------------------------------------------------------
 Warning -- This program may not be used in any manner that
 competes with the business of Gaussian, Inc. or will provide
 assistance to any competitor of Gaussian, Inc.  The licensee
 of this program is prohibited from giving any competitor of
 Gaussian, Inc. access to this program.  By using this program,
 the user acknowledges that Gaussian, Inc. is engaged in the
 business of creating and licensing software in the field of
 computational chemistry and represents and warrants to the
 licensee that it is not a competitor of Gaussian, Inc. and that
 it will not use this program in any manner prohibited above.
 ---------------------------------------------------------------
  

 Cite this work as:
 Gaussian 16, Revision C.01,
 M. J. Frisch, G. W. Trucks, H. B. Schlegel, G. E. Scuseria, 
 M. A. Robb, J. R. Cheeseman, G. Scalmani, V. Barone, 
 G. A. Petersson, H. Nakatsuji, X. Li, M. Caricato, A. V. Marenich, 
 J. Bloino, B. G. Janesko, R. Gomperts, B. Mennucci, H. P. Hratchian, 
 J. V. Ortiz, A. F. Izmaylov, J. L. Sonnenberg, D. Williams-Young, 
 F. Ding, F. Lipparini, F. Egidi, J. Goings, B. Peng, A. Petrone, 
 T. Henderson, D. Ranasinghe, V. G. Zakrzewski, J. Gao, N. Rega, 
 G. Zheng, W. Liang, M. Hada, M. Ehara, K. Toyota, R. Fukuda, 
 J. Hasegawa, M. Ishida, T. Nakajima, Y. Honda, O. Kitao, H. Nakai, 
 T. Vreven, K. Throssell, J. A. Montgomery, Jr., J. E. Peralta, 
 F. Ogliaro, M. J. Bearpark, J. J. Heyd, E. N. Brothers, K. N. Kudin, 
 V. N. Staroverov, T. A. Keith, R. Kobayashi, J. Normand, 
 K. Raghavachari, A. P. Rendell, J. C. Burant, S. S. Iyengar, 
 J. Tomasi, M. Cossi, J. M. Millam, M. Klene, C. Adamo, R. Cammi, 
 J. W. Ochterski, R. L. Martin, K. Morokuma, O. Farkas, 
 J. B. Foresman, and D. J. Fox, Gaussian, Inc., Wallingford CT, 2019.
 
 ******************************************
 Gaussian 16:  ES64L-G16RevC.01  3-Jul-2019
                29-May-2022 
 ******************************************
 %chk=in.chk
 %nproc=4
 Will use up to    4 processors via shared memory.
 %mem=2000MB
 -----------------------------
 #p opt M062X/Def2SVP pop(nbo)
 -----------------------------
 1/18=20,19=15,26=3,38=1/1,3;
 2/9=110,12=2,17=6,18=5,40=1/2;
 3/5=43,7=101,11=2,25=1,30=1,71=1,74=-55/1,2,3;
 4//1;
 5/5=2,38=5/2;
 6/7=2,8=2,9=2,10=2,28=1,40=1/1,7;
 7//1,2,3,16;
 1/18=20,19=15,26=3/3(2);
 2/9=110/2;
 99//99;
 2/9=110/2;
 3/5=43,7=101,11=2,25=1,30=1,71=1,74=-55/1,2,3;
 4/5=5,16=3,69=1/1;
 5/5=2,38=5/2;
 7//1,2,3,16;
 1/18=20,19=15,26=3/3(-5);
 2/9=110/2;
 6/7=2,8=2,9=2,10=2,19=2,28=1,40=1/1,7;
 99/9=1/99;
 Leave Link    1 at Sun May 29 19:28:54 2022, MaxMem=   262144000 cpu:               0.0 elap:               0.0
 (Enter /binaries/g16/l101.exe)
 -----------------------
 File created by ccinput
 -----------------------
 Symbolic Z-matrix:
 Charge =  0 Multiplicity = 1
 C                     4.2918    3.6588    0. 
 H                     4.6485    2.65      0. 
 H                     4.6485    4.1632    0.8707 
 H                     4.6485    4.1632   -0.8797 
 H                     3.2218    3.6588    0. 
 
 ITRead=  0  0  0  0  0
 MicOpt= -1 -1 -1 -1 -1
 NAtoms=      5 NQM=        5 NQMF=       0 NMMI=      0 NMMIF=      0
                NMic=       0 NMicF=      0.
                    Isotopes and Nuclear Properties:
 (Nuclear quadrupole moments (NQMom) in fm**2, nuclear magnetic moments (NMagM)
  in nuclear magnetons)

  Atom         1           2           3           4           5
 IAtWgt=          12           1           1           1           1
 AtmWgt=  12.0000000   1.0078250   1.0078250   1.0078250   1.0078250
 NucSpn=           0           1           1           1           1
 AtZEff=  -0.0000000  -0.0000000  -0.0000000  -0.0000000  -0.0000000
 NQMom=    0.0000000   0.0000000   0.0000000   0.0000000   0.0000000
 NMagM=    0.0000000   2.7928460   2.7928460   2.7928460   2.7928460
 AtZNuc=   6.0000000   1.0000000   1.0000000   1.0000000   1.0000000
 Leave Link  101 at Sun May 29 19:28:54 2022, MaxMem=   262144000 cpu:               0.5 elap:               0.1
 (Enter /binaries/g16/l103.exe)

 GradGradGradGradGradGradGradGradGradGradGradGradGradGradGradGradGradGrad
 Berny optimization.
 Initialization pass.
                           ----------------------------
                           !    Initial Parameters    !
                           ! (Angstroms and Degrees)  !
 --------------------------                            --------------------------
 ! Name  Definition              Value          Derivative Info.                !
 --------------------------------------------------------------------------------
 ! R1    R(1,2)                  1.07           estimate D2E/DX2                !
 ! R2    R(1,3)                  1.0676         estimate D2E/DX2                !
 ! R3    R(1,4)                  1.075          estimate D2E/DX2                !
 ! R4    R(1,5)                  1.07           estimate D2E/DX2                !
 ! A1    A(2,1,3)              109.5151         estimate D2E/DX2                !
 ! A2    A(2,1,4)              109.3762         estimate D2E/DX2                !
 ! A3    A(2,1,5)              109.473          estimate D2E/DX2                !
 ! A4    A(3,1,4)              109.5644         estimate D2E/DX2                !
 ! A5    A(3,1,5)              109.5186         estimate D2E/DX2                !
 ! A6    A(4,1,5)              109.3798         estimate D2E/DX2                !
 ! D1    D(2,1,4,3)           -120.0525         estimate D2E/DX2                !
 ! D2    D(2,1,5,3)            120.0839         estimate D2E/DX2                !
 ! D3    D(2,1,5,4)           -119.829          estimate D2E/DX2                !
 ! D4    D(3,1,5,4)            120.0871         estimate D2E/DX2                !
 --------------------------------------------------------------------------------
 Trust Radius=3.00D-01 FncErr=1.00D-07 GrdErr=1.00D-06 EigMax=2.50D+02 EigMin=1.00D-04
 Number of steps in this run=     24 maximum allowed number of steps=    100.
 GradGradGradGradGradGradGradGradGradGradGradGradGradGradGradGradGradGrad

 Leave Link  103 at Sun May 29 19:28:54 2022, MaxMem=   262144000 cpu:               0.0 elap:               0.0
 (Enter /binaries/g16/l202.exe)
                          Input orientation:                          
 ---------------------------------------------------------------------
 Center     Atomic      Atomic             Coordinates (Angstroms)
 Number     Number       Type             X           Y           Z
 ---------------------------------------------------------------------
      1          6           0        4.291800    3.658800    0.000000
      2          1           0        4.648500    2.650000    0.000000
      3          1           0        4.648500    4.163200    0.870700
      4          1           0        4.648500    4.163200   -0.879700
      5          1           0        3.221800    3.658800    0.000000
 ---------------------------------------------------------------------
                    Distance matrix (angstroms):
                    1          2          3          4          5
     1  C    0.000000
     2  H    1.070006   0.000000
     3  H    1.067601   1.745822   0.000000
     4  H    1.074954   1.750327   1.750400   0.000000
     5  H    1.070000   1.747327   1.745855   1.750361   0.000000
 Stoichiometry    CH4
 Framework group  C1[X(CH4)]
 Deg. of freedom     9
 Full point group                 C1      NOp   1
 Largest Abelian subgroup         C1      NOp   1
 Largest concise Abelian subgroup C1      NOp   1
                         Standard orientation:                         
 ---------------------------------------------------------------------
 Center     Atomic      Atomic             Coordinates (Angstroms)
 Number     Number       Type             X           Y           Z
 ---------------------------------------------------------------------
      1          6           0       -0.000767    0.000001    0.000472
      2          1           0       -0.325680   -0.869163   -0.532348
      3          1           0       -0.412253   -0.010991    0.985525
      4          1           0        1.072605    0.002075    0.058743
      5          1           0       -0.330072    0.878070   -0.514750
 ---------------------------------------------------------------------
 Rotational constants (GHZ):         164.4303219         163.9529333         163.7655362
 Leave Link  202 at Sun May 29 19:28:54 2022, MaxMem=   262144000 cpu:               0.0 elap:               0.0
 (Enter /binaries/g16/l301.exe)
 Standard basis: def2SVP (5D, 7F)
 Ernie: Thresh=  0.10000D-02 Tol=  0.10000D-05 Strict=F.
 There are    35 symmetry adapted cartesian basis functions of A   symmetry.
 There are    34 symmetry adapted basis functions of A   symmetry.
    34 basis functions,    53 primitive gaussians,    35 cartesian basis functions
     5 alpha electrons        5 beta electrons
       nuclear repulsion energy        13.6784087271 Hartrees.
 IExCor= 4336 DFT=T Ex+Corr=M062X ExCW=0 ScaHFX=  0.540000
 ScaDFX=  1.000000  1.000000  1.000000  1.000000 ScalE2=  1.000000  1.000000
 IRadAn=      5 IRanWt=     -1 IRanGd=            0 ICorTp=0 IEmpDi=  4
 NAtoms=    5 NActive=    5 NUniq=    5 SFac= 1.00D+00 NAtFMM=   60 NAOKFM=F Big=F
 Integral buffers will be    131072 words long.
 Raffenetti 2 integral format.
 Two-electron integral symmetry is turned on.
 Leave Link  301 at Sun May 29 19:28:54 2022, MaxMem=   262144000 cpu:               0.1 elap:               0.0
 (Enter /binaries/g16/l302.exe)
 NPDir=0 NMtPBC=     1 NCelOv=     1 NCel=       1 NClECP=     1 NCelD=      1
         NCelK=      1 NCelE2=     1 NClLst=     1 CellRange=     0.0.
 One-electron integrals computed using PRISM.
 One-electron integral symmetry used in STVInt
   1 Symmetry operations used in ECPInt.
 ECPInt:  NShTT=     171 NPrTT=     553 LenC2=     172 LenP2D=     543.
 LDataN:  DoStor=T MaxTD1= 4 Len=   56
 NBasis=    34 RedAO= T EigKep=  1.32D-02  NBF=    34
 NBsUse=    34 1.00D-06 EigRej= -1.00D+00 NBFU=    34
 Precomputing XC quadrature grid using
 IXCGrd= 4 IRadAn=           5 IRanWt=          -1 IRanGd=           0 AccXCQ= 0.00D+00.
 Generated NRdTot=       0 NPtTot=           0 NUsed=           0 NTot=          32
 NSgBfM=    35    35    35    35    35 MxSgAt=     5 MxSgA2=     5.
 Leave Link  302 at Sun May 29 19:28:54 2022, MaxMem=   262144000 cpu:               0.3 elap:               0.1
 (Enter /binaries/g16/l303.exe)
 DipDrv:  MaxL=1.
 Leave Link  303 at Sun May 29 19:28:54 2022, MaxMem=   262144000 cpu:               0.1 elap:               0.0
 (Enter /binaries/g16/l401.exe)
 ExpMin= 1.22D-01 ExpMax= 1.24D+03 ExpMxC= 1.86D+02 IAcc=3 IRadAn=         5 AccDes= 0.00D+00
 Harris functional with IExCor= 1009 and IRadAn=       5 diagonalized for initial guess.
 HarFok:  IExCor= 1009 AccDes= 0.00D+00 IRadAn=         5 IDoV= 1 UseB2=F ITyADJ=14
 ICtDFT=  3500011 ScaDFX=  1.000000  1.000000  1.000000  1.000000
 FoFCou: FMM=F IPFlag=           0 FMFlag=      100000 FMFlg1=           0
         NFxFlg=           0 DoJE=T BraDBF=F KetDBF=T FulRan=T
         wScrn=  0.000000 ICntrl=       500 IOpCl=  0 I1Cent=   200000004 NGrid=           0
         NMat0=    1 NMatS0=      1 NMatT0=    0 NMatD0=    1 NMtDS0=    0 NMtDT0=    0
 Petite list used in FoFCou.
 Harris En= -40.4890225627125    
 JPrj=0 DoOrth=F DoCkMO=F.
 Leave Link  401 at Sun May 29 19:28:54 2022, MaxMem=   262144000 cpu:               0.4 elap:               0.1
 (Enter /binaries/g16/l502.exe)
 Keep R1 ints in memory in canonical form, NReq=3636988.
 FoFCou: FMM=F IPFlag=           0 FMFlag=           0 FMFlg1=           0
         NFxFlg=           0 DoJE=F BraDBF=F KetDBF=F FulRan=T
         wScrn=  0.000000 ICntrl=       600 IOpCl=  0 I1Cent=           0 NGrid=           0
         NMat0=    1 NMatS0=    595 NMatT0=    0 NMatD0=    1 NMtDS0=    0 NMtDT0=    0
 Symmetry not used in FoFCou.
 Two-electron integral symmetry not used.
 Closed shell SCF:
 Using DIIS extrapolation, IDIIS=  1040.
 NGot=   262144000 LenX=   261963332 LenY=   261961666
 Requested convergence on RMS density matrix=1.00D-08 within 128 cycles.
 Requested convergence on MAX density matrix=1.00D-06.
 Requested convergence on             energy=1.00D-06.
 No special actions if energy rises.
 Integral accuracy reduced to 1.0D-05 until final iterations.

 Cycle   1  Pass 0  IDiag  1:
 E= -40.3595509037505    
 DIIS: error= 5.28D-02 at cycle   1 NSaved=   1.
 NSaved= 1 IEnMin= 1 EnMin= -40.3595509037505     IErMin= 1 ErrMin= 5.28D-02
 ErrMax= 5.28D-02  0.00D+00 EMaxC= 1.00D-01 BMatC= 8.11D-02 BMatP= 8.11D-02
 IDIUse=3 WtCom= 4.72D-01 WtEn= 5.28D-01
 Coeff-Com:  0.100D+01
 Coeff-En:   0.100D+01
 Coeff:      0.100D+01
 Gap=     0.490 Goal=   None    Shift=    0.000
 GapD=    0.490 DampG=2.000 DampE=0.500 DampFc=1.0000 IDamp=-1.
 RMSDP=1.25D-02 MaxDP=1.57D-01              OVMax= 1.61D-01

 Cycle   2  Pass 0  IDiag  1:
 E= -40.3946308520984     Delta-E=       -0.035079948348 Rises=F Damp=F
 DIIS: error= 4.21D-02 at cycle   2 NSaved=   2.
 NSaved= 2 IEnMin= 2 EnMin= -40.3946308520984     IErMin= 2 ErrMin= 4.21D-02
 ErrMax= 4.21D-02  0.00D+00 EMaxC= 1.00D-01 BMatC= 5.00D-02 BMatP= 8.11D-02
 IDIUse=3 WtCom= 5.79D-01 WtEn= 4.21D-01
 Coeff-Com:  0.439D+00 0.561D+00
 Coeff-En:   0.356D+00 0.644D+00
 Coeff:      0.404D+00 0.596D+00
 Gap=     0.575 Goal=   None    Shift=    0.000
 RMSDP=5.71D-03 MaxDP=7.28D-02 DE=-3.51D-02 OVMax= 7.36D-02

 Cycle   3  Pass 0  IDiag  1:
 E= -40.4480918959378     Delta-E=       -0.053461043839 Rises=F Damp=F
 DIIS: error= 3.05D-03 at cycle   3 NSaved=   3.
 NSaved= 3 IEnMin= 3 EnMin= -40.4480918959378     IErMin= 3 ErrMin= 3.05D-03
 ErrMax= 3.05D-03  0.00D+00 EMaxC= 1.00D-01 BMatC= 2.53D-04 BMatP= 5.00D-02
 IDIUse=3 WtCom= 9.69D-01 WtEn= 3.05D-02
 Coeff-Com: -0.239D-01 0.398D-01 0.984D+00
 Coeff-En:   0.000D+00 0.000D+00 0.100D+01
 Coeff:     -0.232D-01 0.386D-01 0.985D+00
 Gap=     0.576 Goal=   None    Shift=    0.000
 RMSDP=3.53D-04 MaxDP=4.76D-03 DE=-5.35D-02 OVMax= 4.85D-03

 Cycle   4  Pass 0  IDiag  1:
 E= -40.4483579462622     Delta-E=       -0.000266050324 Rises=F Damp=F
 DIIS: error= 6.21D-05 at cycle   4 NSaved=   4.
 NSaved= 4 IEnMin= 4 EnMin= -40.4483579462622     IErMin= 4 ErrMin= 6.21D-05
 ErrMax= 6.21D-05  0.00D+00 EMaxC= 1.00D-01 BMatC= 6.31D-08 BMatP= 2.53D-04
 IDIUse=1 WtCom= 1.00D+00 WtEn= 0.00D+00
 Coeff-Com:  0.276D-02-0.583D-02-0.120D+00 0.112D+01
 Coeff:      0.276D-02-0.583D-02-0.120D+00 0.112D+01
 Gap=     0.576 Goal=   None    Shift=    0.000
 RMSDP=2.33D-05 MaxDP=1.45D-04 DE=-2.66D-04 OVMax= 1.23D-04

 Cycle   5  Pass 0  IDiag  1:
 E= -40.4483580396268     Delta-E=       -0.000000093365 Rises=F Damp=F
 DIIS: error= 5.94D-06 at cycle   5 NSaved=   5.
 NSaved= 5 IEnMin= 5 EnMin= -40.4483580396268     IErMin= 5 ErrMin= 5.94D-06
 ErrMax= 5.94D-06  0.00D+00 EMaxC= 1.00D-01 BMatC= 5.88D-10 BMatP= 6.31D-08
 IDIUse=1 WtCom= 1.00D+00 WtEn= 0.00D+00
 Coeff-Com:  0.110D-03-0.300D-03-0.444D-02 0.529D-01 0.952D+00
 Coeff:      0.110D-03-0.300D-03-0.444D-02 0.529D-01 0.952D+00
 Gap=     0.576 Goal=   None    Shift=    0.000
 RMSDP=8.78D-07 MaxDP=5.77D-06 DE=-9.34D-08 OVMax= 1.18D-05

 Initial convergence to 1.0D-05 achieved.  Increase integral accuracy.
 Cycle   6  Pass 1  IDiag  1:
 E= -40.4483600510493     Delta-E=       -0.000002011423 Rises=F Damp=F
 DIIS: error= 1.53D-05 at cycle   1 NSaved=   1.
 NSaved= 1 IEnMin= 1 EnMin= -40.4483600510493     IErMin= 1 ErrMin= 1.53D-05
 ErrMax= 1.53D-05  0.00D+00 EMaxC= 1.00D-01 BMatC= 1.20D-08 BMatP= 1.20D-08
 IDIUse=1 WtCom= 1.00D+00 WtEn= 0.00D+00
 Coeff-Com:  0.100D+01
 Coeff:      0.100D+01
 Gap=     0.576 Goal=   None    Shift=    0.000
 RMSDP=8.78D-07 MaxDP=5.77D-06 DE=-2.01D-06 OVMax= 3.88D-05

 Cycle   7  Pass 1  IDiag  1:
 E= -40.4483600631878     Delta-E=       -0.000000012138 Rises=F Damp=F
 DIIS: error= 1.66D-06 at cycle   2 NSaved=   2.
 NSaved= 2 IEnMin= 2 EnMin= -40.4483600631878     IErMin= 2 ErrMin= 1.66D-06
 ErrMax= 1.66D-06  0.00D+00 EMaxC= 1.00D-01 BMatC= 1.19D-10 BMatP= 1.20D-08
 IDIUse=1 WtCom= 1.00D+00 WtEn= 0.00D+00
 Coeff-Com: -0.330D-01 0.103D+01
 Coeff:     -0.330D-01 0.103D+01
 Gap=     0.576 Goal=   None    Shift=    0.000
 RMSDP=4.71D-07 MaxDP=3.77D-06 DE=-1.21D-08 OVMax= 5.07D-06

 Cycle   8  Pass 1  IDiag  1:
 E= -40.4483600633225     Delta-E=       -0.000000000135 Rises=F Damp=F
 DIIS: error= 7.02D-07 at cycle   3 NSaved=   3.
 NSaved= 3 IEnMin= 3 EnMin= -40.4483600633225     IErMin= 3 ErrMin= 7.02D-07
 ErrMax= 7.02D-07  0.00D+00 EMaxC= 1.00D-01 BMatC= 1.42D-11 BMatP= 1.19D-10
 IDIUse=1 WtCom= 1.00D+00 WtEn= 0.00D+00
 Coeff-Com: -0.156D-01 0.213D+00 0.803D+00
 Coeff:     -0.156D-01 0.213D+00 0.803D+00
 Gap=     0.576 Goal=   None    Shift=    0.000
 RMSDP=1.23D-07 MaxDP=1.53D-06 DE=-1.35D-10 OVMax= 1.96D-06

 Cycle   9  Pass 1  IDiag  1:
 E= -40.4483600633358     Delta-E=       -0.000000000013 Rises=F Damp=F
 DIIS: error= 2.81D-07 at cycle   4 NSaved=   4.
 NSaved= 4 IEnMin= 4 EnMin= -40.4483600633358     IErMin= 4 ErrMin= 2.81D-07
 ErrMax= 2.81D-07  0.00D+00 EMaxC= 1.00D-01 BMatC= 1.98D-12 BMatP= 1.42D-11
 IDIUse=1 WtCom= 1.00D+00 WtEn= 0.00D+00
 Coeff-Com: -0.277D-02 0.507D-02 0.266D+00 0.731D+00
 Coeff:     -0.277D-02 0.507D-02 0.266D+00 0.731D+00
 Gap=     0.576 Goal=   None    Shift=    0.000
 RMSDP=3.90D-08 MaxDP=4.77D-07 DE=-1.33D-11 OVMax= 6.01D-07

 Cycle  10  Pass 1  IDiag  1:
 E= -40.4483600633381     Delta-E=       -0.000000000002 Rises=F Damp=F
 DIIS: error= 3.41D-08 at cycle   5 NSaved=   5.
 NSaved= 5 IEnMin= 5 EnMin= -40.4483600633381     IErMin= 5 ErrMin= 3.41D-08
 ErrMax= 3.41D-08  0.00D+00 EMaxC= 1.00D-01 BMatC= 4.49D-14 BMatP= 1.98D-12
 IDIUse=1 WtCom= 1.00D+00 WtEn= 0.00D+00
 Coeff-Com:  0.264D-03-0.109D-01 0.584D-03 0.119D+00 0.891D+00
 Coeff:      0.264D-03-0.109D-01 0.584D-03 0.119D+00 0.891D+00
 Gap=     0.576 Goal=   None    Shift=    0.000
 RMSDP=7.89D-09 MaxDP=5.54D-08 DE=-2.27D-12 OVMax= 1.20D-07

 SCF Done:  E(RM062X) =  -40.4483600633     A.U. after   10 cycles
            NFock= 10  Conv=0.79D-08     -V/T= 2.0116
 KE= 3.998608219545D+01 PE=-1.201814881777D+02 EE= 2.606863719185D+01
 Leave Link  502 at Sun May 29 19:28:55 2022, MaxMem=   262144000 cpu:               2.6 elap:               0.6
 (Enter /binaries/g16/l601.exe)
 Copying SCF densities to generalized density rwf, IOpCl= 0 IROHF=0.

 **********************************************************************

            Population analysis using the SCF Density.

 **********************************************************************

 Orbital symmetries:
       Occupied  (A) (A) (A) (A) (A)
       Virtual   (A) (A) (A) (A) (A) (A) (A) (A) (A) (A) (A) (A)
                 (A) (A) (A) (A) (A) (A) (A) (A) (A) (A) (A) (A)
                 (A) (A) (A) (A) (A)
 The electronic state is 1-A.
 Alpha  occ. eigenvalues --  -10.52652  -0.78078  -0.45735  -0.45678  -0.45573
 Alpha virt. eigenvalues --    0.11978   0.19269   0.19339   0.19369   0.46522
 Alpha virt. eigenvalues --    0.46541   0.46578   0.72598   0.75644   0.75852
 Alpha virt. eigenvalues --    0.75954   0.85111   1.15610   1.15652   1.60335
 Alpha virt. eigenvalues --    1.60340   1.60471   1.83696   1.84044   1.84142
 Alpha virt. eigenvalues --    2.19177   2.19222   2.19422   2.58882   2.58930
 Alpha virt. eigenvalues --    2.67783   2.96644   2.97211   2.97482
          Condensed to atoms (all electrons):
               1          2          3          4          5
     1  C    4.534894   0.411175   0.411571   0.410580   0.411179
     2  H    0.411175   0.603658  -0.019804  -0.019907  -0.019804
     3  H    0.411571  -0.019804   0.603372  -0.019783  -0.019803
     4  H    0.410580  -0.019907  -0.019783   0.603433  -0.019905
     5  H    0.411179  -0.019804  -0.019803  -0.019905   0.603645
 Mulliken charges:
               1
     1  C   -0.179399
     2  H    0.044682
     3  H    0.044446
     4  H    0.045582
     5  H    0.044688
 Sum of Mulliken charges =  -0.00000
 Mulliken charges with hydrogens summed into heavy atoms:
               1
     1  C   -0.000000
 Electronic spatial extent (au):  <R**2>=             34.7146
 Charge=             -0.0000 electrons
 Dipole moment (field-independent basis, Debye):
    X=             -0.0022    Y=             -0.0000    Z=             -0.0002  Tot=              0.0022
 Quadrupole moment (field-independent basis, Debye-Ang):
   XX=             -8.2221   YY=             -8.2238   ZZ=             -8.2232
   XY=             -0.0000   XZ=             -0.0031   YZ=             -0.0001
 Traceless Quadrupole moment (field-independent basis, Debye-Ang):
   XX=              0.0009   YY=             -0.0008   ZZ=             -0.0002
   XY=             -0.0000   XZ=             -0.0031   YZ=             -0.0001
 Octapole moment (field-independent basis, Debye-Ang**2):
  XXX=              0.6699  YYY=              0.0127  ZZZ=              0.4262  XYY=             -0.3205
  XXY=              0.0025  XXZ=              0.0785  XZZ=             -0.3690  YZZ=             -0.0153
  YYZ=             -0.5004  XYZ=              0.0020
 Hexadecapole moment (field-independent basis, Debye-Ang**3):
 XXXX=            -14.5876 YYYY=            -14.7495 ZZZZ=            -14.7950 XXXY=              0.0020
 XXXZ=              0.0377 YYYX=             -0.0107 YYYZ=              0.0010 ZZZX=             -0.3411
 ZZZY=              0.0008 XXYY=             -5.1795 XXZZ=             -5.1025 YYZZ=             -4.8769
 XXYZ=             -0.0021 YYXZ=              0.2894 ZZXY=              0.0087
 N-N= 1.367840872710D+01 E-N=-1.201814890313D+02  KE= 3.998608219545D+01
 No NMR shielding tensors so no spin-rotation constants.
 Leave Link  601 at Sun May 29 19:28:55 2022, MaxMem=   262144000 cpu:               0.2 elap:               0.1
 (Enter /binaries/g16/l607.exe)
 ******************************Gaussian NBO Version 3.1******************************
             N A T U R A L   A T O M I C   O R B I T A L   A N D
          N A T U R A L   B O N D   O R B I T A L   A N A L Y S I S
 ******************************Gaussian NBO Version 3.1******************************
       /RESON  / : Allow strongly delocalized NBO set

 Analyzing the SCF density

 Job title: File created by ccinput                                         

 Storage needed:      3658 in NPA,      4765 in NBO ( 262143825 available)
 GSVD:  LWork=         442 too small for GESVD, short by         986 words or         986 for optimal perf.


 NATURAL POPULATIONS:  Natural atomic orbital occupancies 
                                                          
   NAO  Atom  No  lang   Type(AO)    Occupancy      Energy
 ----------------------------------------------------------
     1    C    1  S      Cor( 1S)     1.99942     -10.40830
     2    C    1  S      Val( 2S)     1.14549      -0.24115
     3    C    1  S      Ryd( 3S)     0.00000       0.79989
     4    C    1  px     Val( 2p)     1.22744      -0.07239
     5    C    1  px     Ryd( 3p)     0.00000       0.56906
     6    C    1  py     Val( 2p)     1.22741      -0.07126
     7    C    1  py     Ryd( 3p)     0.00000       0.56876
     8    C    1  pz     Val( 2p)     1.22738      -0.07073
     9    C    1  pz     Ryd( 3p)     0.00000       0.56863
    10    C    1  dxy    Ryd( 3d)     0.00017       2.25012
    11    C    1  dxz    Ryd( 3d)     0.00024       2.29315
    12    C    1  dyz    Ryd( 3d)     0.00043       2.41799
    13    C    1  dx2y2  Ryd( 3d)     0.00056       2.49702
    14    C    1  dz2    Ryd( 3d)     0.00040       2.39768

    15    H    2  S      Val( 1S)     0.79140       0.10731
    16    H    2  S      Ryd( 2S)     0.00049       0.36848
    17    H    2  px     Ryd( 2p)     0.00018       1.81773
    18    H    2  py     Ryd( 2p)     0.00051       2.22061
    19    H    2  pz     Ryd( 2p)     0.00027       1.92868

    20    H    3  S      Val( 1S)     0.79176       0.10877
    21    H    3  S      Ryd( 2S)     0.00049       0.36728
    22    H    3  px     Ryd( 2p)     0.00021       1.85974
    23    H    3  py     Ryd( 2p)     0.00013       1.75414
    24    H    3  pz     Ryd( 2p)     0.00063       2.36123

    25    H    4  S      Val( 1S)     0.79069       0.10435
    26    H    4  S      Ryd( 2S)     0.00048       0.37072
    27    H    4  px     Ryd( 2p)     0.00071       2.44879
    28    H    4  py     Ryd( 2p)     0.00013       1.74954
    29    H    4  pz     Ryd( 2p)     0.00013       1.75222

    30    H    5  S      Val( 1S)     0.79140       0.10732
    31    H    5  S      Ryd( 2S)     0.00049       0.36847
    32    H    5  px     Ryd( 2p)     0.00018       1.81952
    33    H    5  py     Ryd( 2p)     0.00052       2.23026
    34    H    5  pz     Ryd( 2p)     0.00026       1.91726


 Summary of Natural Population Analysis:                  
                                                          
                                       Natural Population 
                Natural  -----------------------------------------------
    Atom  No    Charge         Core      Valence    Rydberg      Total
 -----------------------------------------------------------------------
      C    1   -0.82894      1.99942     4.82771    0.00180     6.82894
      H    2    0.20714      0.00000     0.79140    0.00146     0.79286
      H    3    0.20679      0.00000     0.79176    0.00146     0.79321
      H    4    0.20787      0.00000     0.79069    0.00145     0.79213
      H    5    0.20714      0.00000     0.79140    0.00146     0.79286
 =======================================================================
   * Total *   -0.00000      1.99942     7.99295    0.00762    10.00000

                                 Natural Population      
 --------------------------------------------------------
   Core                       1.99942 ( 99.9712% of   2)
   Valence                    7.99295 ( 99.9119% of   8)
   Natural Minimal Basis      9.99238 ( 99.9238% of  10)
   Natural Rydberg Basis      0.00762 (  0.0762% of  10)
 --------------------------------------------------------

    Atom  No          Natural Electron Configuration
 ----------------------------------------------------------------------------
      C    1      [core]2S( 1.15)2p( 3.68)
      H    2            1S( 0.79)
      H    3            1S( 0.79)
      H    4            1S( 0.79)
      H    5            1S( 0.79)


 NATURAL BOND ORBITAL ANALYSIS:

                       Occupancies       Lewis Structure    Low   High
           Occ.    -------------------  -----------------   occ   occ
  Cycle   Thresh.   Lewis   Non-Lewis     CR  BD  3C  LP    (L)   (NL)   Dev
 =============================================================================
   1(1)    1.90     9.99417   0.00583      1   4   0   0     0      0    0.00
 -----------------------------------------------------------------------------

 Structure accepted: No low occupancy Lewis orbitals

 --------------------------------------------------------
   Core                      1.99942 ( 99.971% of   2)
   Valence Lewis             7.99475 ( 99.934% of   8)
  ==================       ============================
   Total Lewis               9.99417 ( 99.942% of  10)
  -----------------------------------------------------
   Valence non-Lewis         0.00262 (  0.026% of  10)
   Rydberg non-Lewis         0.00321 (  0.032% of  10)
  ==================       ============================
   Total non-Lewis           0.00583 (  0.058% of  10)
 --------------------------------------------------------


       (Occupancy)   Bond orbital/ Coefficients/ Hybrids
 ---------------------------------------------------------------------------------
     1. (1.99868) BD ( 1) C   1 - H   2  
                ( 60.39%)   0.7771* C   1 s( 25.01%)p 3.00( 74.96%)d 0.00(  0.04%)
                                            0.0001  0.5001  0.0000 -0.2629 -0.0000
                                           -0.7033 -0.0001 -0.4311 -0.0000  0.0082
                                            0.0050  0.0134 -0.0094 -0.0025
                ( 39.61%)   0.6294* H   2 s( 99.92%)p 0.00(  0.08%)
                                            0.9996  0.0009  0.0086  0.0231  0.0141
     2. (1.99868) BD ( 1) C   1 - H   3  
                ( 60.37%)   0.7770* C   1 s( 25.12%)p 2.98( 74.84%)d 0.00(  0.04%)
                                            0.0001  0.5012  0.0002 -0.3327 -0.0003
                                           -0.0089 -0.0000  0.7985  0.0006  0.0001
                                           -0.0119 -0.0003  0.0025  0.0149
                ( 39.63%)   0.6295* H   3 s( 99.92%)p 0.00(  0.08%)
                                            0.9996  0.0009  0.0109  0.0003 -0.0262
     3. (1.99870) BD ( 1) C   1 - H   4  
                ( 60.43%)   0.7773* C   1 s( 24.86%)p 3.02( 75.10%)d 0.00(  0.04%)
                                            0.0001  0.4986 -0.0003  0.8653 -0.0008
                                            0.0017 -0.0000  0.0477 -0.0001  0.0001
                                            0.0018  0.0000  0.0164 -0.0094
                ( 39.57%)   0.6291* H   4 s( 99.92%)p 0.00(  0.08%)
                                            0.9996  0.0009 -0.0283 -0.0001 -0.0015
     4. (1.99868) BD ( 1) C   1 - H   5  
                ( 60.39%)   0.7771* C   1 s( 25.01%)p 3.00( 74.96%)d 0.00(  0.04%)
                                            0.0001  0.5001  0.0000 -0.2664 -0.0001
                                            0.7105  0.0001 -0.4169 -0.0000 -0.0084
                                            0.0049 -0.0131 -0.0096 -0.0029
                ( 39.61%)   0.6294* H   5 s( 99.92%)p 0.00(  0.08%)
                                            0.9996  0.0009  0.0087 -0.0233  0.0137
     5. (1.99942) CR ( 1) C   1           s(100.00%)
                                            1.0000 -0.0003  0.0000 -0.0000  0.0000
                                            0.0000  0.0000  0.0000 -0.0000 -0.0000
                                            0.0000 -0.0000  0.0000  0.0000
     6. (0.00000) RY*( 1) C   1           s(100.00%)p 0.00(  0.00%)
     7. (0.00000) RY*( 2) C   1           s(  0.00%)p 1.00(100.00%)
     8. (0.00000) RY*( 3) C   1           s(  0.00%)p 1.00(100.00%)
     9. (0.00000) RY*( 4) C   1           s(  0.00%)p 1.00(100.00%)
    10. (0.00000) RY*( 5) C   1           s(  0.00%)p 1.00(  0.01%)d99.99( 99.99%)
    11. (0.00000) RY*( 6) C   1           s(  0.00%)p 1.00(  0.02%)d99.99( 99.98%)
    12. (0.00000) RY*( 7) C   1           s(  0.00%)p 1.00(  0.04%)d99.99( 99.96%)
    13. (0.00000) RY*( 8) C   1           s(  0.00%)p 1.00(  0.05%)d99.99( 99.95%)
    14. (0.00000) RY*( 9) C   1           s(  0.00%)p 1.00(  0.03%)d99.99( 99.97%)
    15. (0.00055) RY*( 1) H   2           s( 89.21%)p 0.12( 10.79%)
                                            0.0085  0.9444 -0.1020 -0.2664 -0.1630
    16. (0.00013) RY*( 2) H   2           s(  0.00%)p 1.00(100.00%)
                                            0.0002 -0.0002  0.9504 -0.2659 -0.1614
    17. (0.00013) RY*( 3) H   2           s(  0.00%)p 1.00(100.00%)
                                           -0.0001  0.0004 -0.0007 -0.5207  0.8538
    18. (0.00000) RY*( 4) H   2           s( 10.88%)p 8.20( 89.12%)
    19. (0.00055) RY*( 1) H   3           s( 89.16%)p 0.12( 10.84%)
                                            0.0085  0.9442 -0.1254 -0.0033  0.3044
    20. (0.00013) RY*( 2) H   3           s(  0.00%)p 1.00(100.00%)
                                           -0.0001  0.0022 -0.9222  0.0000 -0.3868
    21. (0.00013) RY*( 3) H   3           s(  0.00%)p 1.00(100.00%)
                                           -0.0000 -0.0000 -0.0039  0.9999  0.0094
    22. (0.00000) RY*( 4) H   3           s( 10.92%)p 8.16( 89.08%)
    23. (0.00054) RY*( 1) H   4           s( 89.13%)p 0.12( 10.87%)
                                            0.0085  0.9440  0.3290  0.0007  0.0220
    24. (0.00013) RY*( 2) H   4           s(  0.00%)p 1.00(100.00%)
                                           -0.0000 -0.0000 -0.0020  1.0000 -0.0001
    25. (0.00013) RY*( 3) H   4           s(  0.00%)p 1.00(100.00%)
                                            0.0002  0.0018  0.0617 -0.0000 -0.9981
    26. (0.00000) RY*( 4) H   4           s( 10.95%)p 8.13( 89.05%)
    27. (0.00055) RY*( 1) H   5           s( 89.20%)p 0.12( 10.80%)
                                            0.0085  0.9444 -0.1033  0.2692 -0.1576
    28. (0.00013) RY*( 2) H   5           s(  0.00%)p 1.00(100.00%)
                                           -0.0002  0.0002 -0.9491 -0.2724  0.1583
    29. (0.00013) RY*( 3) H   5           s(  0.00%)p 1.00(100.00%)
                                           -0.0001  0.0004 -0.0007  0.5040  0.8637
    30. (0.00000) RY*( 4) H   5           s( 10.88%)p 8.19( 89.12%)
    31. (0.00066) BD*( 1) C   1 - H   2  
                ( 39.61%)   0.6294* C   1 s( 25.01%)p 3.00( 74.96%)d 0.00(  0.04%)
                                           -0.0001 -0.5001 -0.0000  0.2629  0.0000
                                            0.7033  0.0001  0.4311  0.0000 -0.0082
                                           -0.0050 -0.0134  0.0094  0.0025
                ( 60.39%)  -0.7771* H   2 s( 99.92%)p 0.00(  0.08%)
                                           -0.9996 -0.0009 -0.0086 -0.0231 -0.0141
    32. (0.00066) BD*( 1) C   1 - H   3  
                ( 39.63%)   0.6295* C   1 s( 25.12%)p 2.98( 74.84%)d 0.00(  0.04%)
                                           -0.0001 -0.5012 -0.0002  0.3327  0.0003
                                            0.0089  0.0000 -0.7985 -0.0006 -0.0001
                                            0.0119  0.0003 -0.0025 -0.0149
                ( 60.37%)  -0.7770* H   3 s( 99.92%)p 0.00(  0.08%)
                                           -0.9996 -0.0009 -0.0109 -0.0003  0.0262
    33. (0.00064) BD*( 1) C   1 - H   4  
                ( 39.57%)   0.6291* C   1 s( 24.86%)p 3.02( 75.10%)d 0.00(  0.04%)
                                           -0.0001 -0.4986  0.0003 -0.8653  0.0008
                                           -0.0017  0.0000 -0.0477  0.0001 -0.0001
                                           -0.0018 -0.0000 -0.0164  0.0094
                ( 60.43%)  -0.7773* H   4 s( 99.92%)p 0.00(  0.08%)
                                           -0.9996 -0.0009  0.0283  0.0001  0.0015
    34. (0.00066) BD*( 1) C   1 - H   5  
                ( 39.61%)   0.6294* C   1 s( 25.01%)p 3.00( 74.96%)d 0.00(  0.04%)
                                           -0.0001 -0.5001 -0.0000  0.2664  0.0001
                                           -0.7105 -0.0001  0.4169  0.0000  0.0084
                                           -0.0049  0.0131  0.0096  0.0029
                ( 60.39%)  -0.7771* H   5 s( 99.92%)p 0.00(  0.08%)
                                           -0.9996 -0.0009 -0.0087  0.0233 -0.0137


 NHO Directionality and "Bond Bending" (deviations from line of nuclear centers)

         [Thresholds for printing:  angular deviation  >  1.0 degree]
                                    hybrid p-character > 25.0%
                                    orbital occupancy  >  0.10e

                                Line of Centers        Hybrid 1              Hybrid 2
                                ---------------  -------------------   ------------------
                NBO               Theta   Phi    Theta   Phi    Dev    Theta   Phi    Dev
 ========================================================================================
    None exceeding thresholds


 Second Order Perturbation Theory Analysis of Fock Matrix in NBO Basis

     Threshold for printing:   0.50 kcal/mol
                                                                              E(2)  E(j)-E(i) F(i,j)
         Donor NBO (i)                     Acceptor NBO (j)                 kcal/mol   a.u.    a.u. 
 ===================================================================================================

 within unit  1
   5. CR (   1) C   1                / 15. RY*(   1) H   2                    0.74   11.08    0.081
   5. CR (   1) C   1                / 19. RY*(   1) H   3                    0.75   11.08    0.081
   5. CR (   1) C   1                / 23. RY*(   1) H   4                    0.74   11.08    0.081
   5. CR (   1) C   1                / 27. RY*(   1) H   5                    0.74   11.08    0.081


 Natural Bond Orbitals (Summary):

                                                            Principal Delocalizations
           NBO                        Occupancy    Energy   (geminal,vicinal,remote)
 ====================================================================================
 Molecular unit  1  (CH4)
     1. BD (   1) C   1 - H   2          1.99868    -0.56575   
     2. BD (   1) C   1 - H   3          1.99868    -0.56700   
     3. BD (   1) C   1 - H   4          1.99870    -0.56356   
     4. BD (   1) C   1 - H   5          1.99868    -0.56576   
     5. CR (   1) C   1                  1.99942   -10.40787  19(v),15(v),27(v),23(v)
     6. RY*(   1) C   1                  0.00000     0.79989   
     7. RY*(   2) C   1                  0.00000     0.56916   
     8. RY*(   3) C   1                  0.00000     0.56874   
     9. RY*(   4) C   1                  0.00000     0.56855   
    10. RY*(   5) C   1                  0.00000     2.24860   
    11. RY*(   6) C   1                  0.00000     2.29102   
    12. RY*(   7) C   1                  0.00000     2.41426   
    13. RY*(   8) C   1                  0.00000     2.49215   
    14. RY*(   9) C   1                  0.00000     2.39422   
    15. RY*(   1) H   2                  0.00055     0.66734   
    16. RY*(   2) H   2                  0.00013     1.75235   
    17. RY*(   3) H   2                  0.00013     1.75282   
    18. RY*(   4) H   2                  0.00000     2.15543   
    19. RY*(   1) H   3                  0.00055     0.66816   
    20. RY*(   2) H   3                  0.00013     1.75377   
    21. RY*(   3) H   3                  0.00013     1.75406   
    22. RY*(   4) H   3                  0.00000     2.15876   
    23. RY*(   1) H   4                  0.00054     0.66955   
    24. RY*(   2) H   4                  0.00013     1.74954   
    25. RY*(   3) H   4                  0.00013     1.75019   
    26. RY*(   4) H   4                  0.00000     2.14459   
    27. RY*(   1) H   5                  0.00055     0.66739   
    28. RY*(   2) H   5                  0.00013     1.75236   
    29. RY*(   3) H   5                  0.00013     1.75282   
    30. RY*(   4) H   5                  0.00000     2.15539   
    31. BD*(   1) C   1 - H   2          0.00066     0.57087   
    32. BD*(   1) C   1 - H   3          0.00066     0.57467   
    33. BD*(   1) C   1 - H   4          0.00064     0.56327   
    34. BD*(   1) C   1 - H   5          0.00066     0.57088   
       -------------------------------
              Total Lewis    9.99417  ( 99.9417%)
        Valence non-Lewis    0.00262  (  0.0262%)
        Rydberg non-Lewis    0.00321  (  0.0321%)
       -------------------------------
            Total unit  1   10.00000  (100.0000%)
           Charge unit  1    0.00000
 Leave Link  607 at Sun May 29 19:28:55 2022, MaxMem=   262144000 cpu:               1.2 elap:               0.3
 (Enter /binaries/g16/l701.exe)
 ... and contract with generalized density number  0.
 Compute integral first derivatives.
   1 Symmetry operations used in ECPInt.
 ECPInt:  NShTT=     171 NPrTT=     553 LenC2=     172 LenP2D=     543.
 LDataN:  DoStor=T MaxTD1= 5 Len=  102
 Leave Link  701 at Sun May 29 19:28:55 2022, MaxMem=   262144000 cpu:               0.2 elap:               0.1
 (Enter /binaries/g16/l702.exe)
 L702 exits ... SP integral derivatives will be done elsewhere.
 Leave Link  702 at Sun May 29 19:28:55 2022, MaxMem=   262144000 cpu:               0.1 elap:               0.0
 (Enter /binaries/g16/l703.exe)
 Integral derivatives from FoFJK, PRISM(SPDF).
 Compute integral first derivatives, UseDBF=F ICtDFT=           0.
 Calling FoFJK, ICntrl=      2127 FMM=F ISym2X=0 I1Cent= 0 IOpClX= 0 NMat=1 NMatS=1 NMatT=0.
 FoFJK:  IHMeth= 1 ICntrl=    2127 DoSepK=F KAlg= 0 I1Cent=           0 FoldK=F
 IRaf=         0 NMat=       1 IRICut=       1 DoRegI=T DoRafI=F ISym2E= 0 IDoP0=0 IntGTp=1.
 FoFCou: FMM=F IPFlag=           0 FMFlag=      100000 FMFlg1=         800
         NFxFlg=           0 DoJE=F BraDBF=F KetDBF=F FulRan=T
         wScrn=  0.000000 ICntrl=      2127 IOpCl=  0 I1Cent=           0 NGrid=           0
         NMat0=    1 NMatS0=      1 NMatT0=    0 NMatD0=    1 NMtDS0=    0 NMtDT0=    0
 Symmetry not used in FoFCou.
 Leave Link  703 at Sun May 29 19:28:56 2022, MaxMem=   262144000 cpu:               0.7 elap:               0.2
 (Enter /binaries/g16/l716.exe)
 Dipole        =-8.50706640D-04-1.18319249D-05-7.06673893D-05
 ***** Axes restored to original set *****
 -------------------------------------------------------------------
 Center     Atomic                   Forces (Hartrees/Bohr)
 Number     Number              X              Y              Z
 -------------------------------------------------------------------
      1        6           0.000546525    0.000752761   -0.004608264
      2        1           0.006362570   -0.018037384    0.000029217
      3        1           0.007056772    0.009987389    0.017008797
      4        1           0.005164487    0.007308378   -0.012458431
      5        1          -0.019130354   -0.000011144    0.000028682
 -------------------------------------------------------------------
 Cartesian Forces:  Max     0.019130354 RMS     0.009757203
 Leave Link  716 at Sun May 29 19:28:56 2022, MaxMem=   262144000 cpu:               0.1 elap:               0.0
 (Enter /binaries/g16/l103.exe)

 GradGradGradGradGradGradGradGradGradGradGradGradGradGradGradGradGradGrad
 Berny optimization.
 FormGI is forming the generalized inverse of G from B-inverse, IUseBI=4.
 Internal  Forces:  Max     0.020948220 RMS     0.010021190
 Search for a local minimum.
 Step number   1 out of a maximum of   24
 All quantities printed in internal units (Hartrees-Bohrs-Radians)
 RMS Force = .10021D-01 SwitMx=.10000D-02 MixMth= 1
 Mixed Optimization -- RFO/linear search
 Second derivative matrix not updated -- first step.
 The second derivative matrix:
                          R1        R2        R3        R4        A1
           R1           0.37229
           R2           0.00000   0.37535
           R3           0.00000   0.00000   0.36611
           R4           0.00000   0.00000   0.00000   0.37230
           A1           0.00000   0.00000   0.00000   0.00000   0.16000
           A2           0.00000   0.00000   0.00000   0.00000   0.00000
           A3           0.00000   0.00000   0.00000   0.00000   0.00000
           A4           0.00000   0.00000   0.00000   0.00000   0.00000
           A5           0.00000   0.00000   0.00000   0.00000   0.00000
           A6           0.00000   0.00000   0.00000   0.00000   0.00000
           D1           0.00000   0.00000   0.00000   0.00000   0.00000
           D2           0.00000   0.00000   0.00000   0.00000   0.00000
           D3           0.00000   0.00000   0.00000   0.00000   0.00000
           D4           0.00000   0.00000   0.00000   0.00000   0.00000
                          A2        A3        A4        A5        A6
           A2           0.16000
           A3           0.00000   0.16000
           A4           0.00000   0.00000   0.16000
           A5           0.00000   0.00000   0.00000   0.16000
           A6           0.00000   0.00000   0.00000   0.00000   0.16000
           D1           0.00000   0.00000   0.00000   0.00000   0.00000
           D2           0.00000   0.00000   0.00000   0.00000   0.00000
           D3           0.00000   0.00000   0.00000   0.00000   0.00000
           D4           0.00000   0.00000   0.00000   0.00000   0.00000
                          D1        D2        D3        D4
           D1           0.00434
           D2           0.00000   0.00499
           D3           0.00000   0.00000   0.00499
           D4           0.00000   0.00000   0.00000   0.00499
 ITU=  0
     Eigenvalues ---    0.05257   0.05901   0.08731   0.16000   0.16000
     Eigenvalues ---    0.36611   0.37229   0.37230   0.37535
 RFO step:  Lambda=-3.74023339D-03 EMin= 5.25714373D-02
 Linear search not attempted -- first point.
 Iteration  1 RMS(Cart)=  0.02662477 RMS(Int)=  0.00001416
 Iteration  2 RMS(Cart)=  0.00001063 RMS(Int)=  0.00000011
 Iteration  3 RMS(Cart)=  0.00000000 RMS(Int)=  0.00000011
 ITry= 1 IFail=0 DXMaxC= 5.08D-02 DCOld= 1.00D+10 DXMaxT= 3.00D-01 DXLimC= 3.00D+00 Rises=F
 Variable       Old X    -DE/DX   Delta X   Delta X   Delta X     New X
                                 (Linear)    (Quad)   (Total)
    R1        2.02202   0.01913   0.00000   0.05086   0.05086   2.07288
    R2        2.01747   0.02095   0.00000   0.05526   0.05526   2.07273
    R3        2.03137   0.01534   0.00000   0.04147   0.04147   2.07284
    R4        2.02201   0.01913   0.00000   0.05087   0.05087   2.07288
    A1        1.91140   0.00002   0.00000   0.00015   0.00015   1.91155
    A2        1.90898   0.00003   0.00000   0.00050   0.00050   1.90947
    A3        1.91066  -0.00004   0.00000   0.00012   0.00012   1.91079
    A4        1.91226  -0.00013   0.00000  -0.00140  -0.00140   1.91086
    A5        1.91146   0.00004   0.00000   0.00012   0.00012   1.91158
    A6        1.90904   0.00009   0.00000   0.00052   0.00052   1.90955
    D1       -2.09531   0.00004   0.00000   0.00037   0.00037  -2.09494
    D2        2.09586   0.00003   0.00000   0.00033   0.00033   2.09619
    D3       -2.09141  -0.00006   0.00000  -0.00100  -0.00100  -2.09241
    D4        2.09592  -0.00009   0.00000  -0.00133  -0.00133   2.09459
         Item               Value     Threshold  Converged?
 Maximum Force            0.020948     0.000450     NO 
 RMS     Force            0.010021     0.000300     NO 
 Maximum Displacement     0.050830     0.001800     NO 
 RMS     Displacement     0.026625     0.001200     NO 
 Predicted change in Energy=-1.888731D-03
 Lowest energy point so far.  Saving SCF results.
 GradGradGradGradGradGradGradGradGradGradGradGradGradGradGradGradGradGrad

 Leave Link  103 at Sun May 29 19:28:56 2022, MaxMem=   262144000 cpu:               0.0 elap:               0.0
 (Enter /binaries/g16/l202.exe)
                          Input orientation:                          
 ---------------------------------------------------------------------
 Center     Atomic      Atomic             Coordinates (Angstroms)
 Number     Number       Type             X           Y           Z
 ---------------------------------------------------------------------
      1          6           0        4.291823    3.658829   -0.001272
      2          1           0        4.657557    2.624674   -0.001100
      3          1           0        4.658600    4.177495    0.892890
      4          1           0        4.656219    4.174105   -0.898432
      5          1           0        3.194902    3.658897   -0.001087
 ---------------------------------------------------------------------
                    Distance matrix (angstroms):
                    1          2          3          4          5
     1  C    0.000000
     2  H    1.096922   0.000000
     3  H    1.096843   1.791779   0.000000
     4  H    1.096900   1.790514   1.791327   0.000000
     5  H    1.096921   1.791361   1.791801   1.790563   0.000000
 Stoichiometry    CH4
 Framework group  C1[X(CH4)]
 Deg. of freedom     9
 Full point group                 C1      NOp   1
 RotChk:  IX=0 Diff= 1.65D+00
 Largest Abelian subgroup         C1      NOp   1
 Largest concise Abelian subgroup C1      NOp   1
                         Standard orientation:                         
 ---------------------------------------------------------------------
 Center     Atomic      Atomic             Coordinates (Angstroms)
 Number     Number       Type             X           Y           Z
 ---------------------------------------------------------------------
      1          6           0       -0.000212    0.000013   -0.000158
      2          1           0        0.396340   -0.886378   -0.510351
      3          1           0       -1.094024    0.010772   -0.080923
      4          1           0        0.288273   -0.028837    1.057733
      5          1           0        0.410681    0.904365   -0.465508
 ---------------------------------------------------------------------
 Rotational constants (GHZ):         156.3630177         156.3022694         156.2056359
 Leave Link  202 at Sun May 29 19:28:56 2022, MaxMem=   262144000 cpu:               0.0 elap:               0.0
 (Enter /binaries/g16/l301.exe)
 Standard basis: def2SVP (5D, 7F)
 Ernie: Thresh=  0.10000D-02 Tol=  0.10000D-05 Strict=F.
 There are    35 symmetry adapted cartesian basis functions of A   symmetry.
 There are    34 symmetry adapted basis functions of A   symmetry.
    34 basis functions,    53 primitive gaussians,    35 cartesian basis functions
     5 alpha electrons        5 beta electrons
       nuclear repulsion energy        13.3509163057 Hartrees.
 IExCor= 4336 DFT=T Ex+Corr=M062X ExCW=0 ScaHFX=  0.540000
 ScaDFX=  1.000000  1.000000  1.000000  1.000000 ScalE2=  1.000000  1.000000
 IRadAn=      5 IRanWt=     -1 IRanGd=            0 ICorTp=0 IEmpDi=  4
 NAtoms=    5 NActive=    5 NUniq=    5 SFac= 1.00D+00 NAtFMM=   60 NAOKFM=F Big=F
 Integral buffers will be    131072 words long.
 Raffenetti 2 integral format.
 Two-electron integral symmetry is turned on.
 Leave Link  301 at Sun May 29 19:28:56 2022, MaxMem=   262144000 cpu:               0.1 elap:               0.0
 (Enter /binaries/g16/l302.exe)
 NPDir=0 NMtPBC=     1 NCelOv=     1 NCel=       1 NClECP=     1 NCelD=      1
         NCelK=      1 NCelE2=     1 NClLst=     1 CellRange=     0.0.
 One-electron integrals computed using PRISM.
 One-electron integral symmetry used in STVInt
   1 Symmetry operations used in ECPInt.
 ECPInt:  NShTT=     171 NPrTT=     553 LenC2=     172 LenP2D=     539.
 LDataN:  DoStor=T MaxTD1= 4 Len=   56
 NBasis=    34 RedAO= T EigKep=  1.42D-02  NBF=    34
 NBsUse=    34 1.00D-06 EigRej= -1.00D+00 NBFU=    34
 Precomputing XC quadrature grid using
 IXCGrd= 4 IRadAn=           5 IRanWt=          -1 IRanGd=           0 AccXCQ= 0.00D+00.
 Generated NRdTot=       0 NPtTot=           0 NUsed=           0 NTot=          32
 NSgBfM=    35    35    35    35    35 MxSgAt=     5 MxSgA2=     5.
 Leave Link  302 at Sun May 29 19:28:56 2022, MaxMem=   262144000 cpu:               0.3 elap:               0.1
 (Enter /binaries/g16/l303.exe)
 DipDrv:  MaxL=1.
 Leave Link  303 at Sun May 29 19:28:56 2022, MaxMem=   262144000 cpu:               0.1 elap:               0.0
 (Enter /binaries/g16/l401.exe)
 Initial guess from the checkpoint file:  "in.chk"
 B after Tr=     0.000000    0.000000   -0.000000
         Rot=    0.811043   -0.004463    0.584789    0.014536 Ang= -71.60 deg.
 Guess basis will be translated and rotated to current coordinates.
 JPrj=2 DoOrth=T DoCkMO=T.
 Generating alternative initial guess.
 ExpMin= 1.22D-01 ExpMax= 1.24D+03 ExpMxC= 1.86D+02 IAcc=3 IRadAn=         5 AccDes= 0.00D+00
 Harris functional with IExCor= 1009 and IRadAn=       5 diagonalized for initial guess.
 HarFok:  IExCor= 1009 AccDes= 0.00D+00 IRadAn=         5 IDoV= 1 UseB2=F ITyADJ=14
 ICtDFT=  3500011 ScaDFX=  1.000000  1.000000  1.000000  1.000000
 FoFCou: FMM=F IPFlag=           0 FMFlag=      100000 FMFlg1=           0
         NFxFlg=           0 DoJE=T BraDBF=F KetDBF=T FulRan=T
         wScrn=  0.000000 ICntrl=       500 IOpCl=  0 I1Cent=   200000004 NGrid=           0
         NMat0=    1 NMatS0=      1 NMatT0=    0 NMatD0=    1 NMtDS0=    0 NMtDT0=    0
 Petite list used in FoFCou.
 Harris En= -40.4825286203091    
 Leave Link  401 at Sun May 29 19:28:56 2022, MaxMem=   262144000 cpu:               0.5 elap:               0.1
 (Enter /binaries/g16/l502.exe)
 Keep R1 ints in memory in canonical form, NReq=3636988.
 FoFCou: FMM=F IPFlag=           0 FMFlag=           0 FMFlg1=           0
         NFxFlg=           0 DoJE=F BraDBF=F KetDBF=F FulRan=T
         wScrn=  0.000000 ICntrl=       600 IOpCl=  0 I1Cent=           0 NGrid=           0
         NMat0=    1 NMatS0=    595 NMatT0=    0 NMatD0=    1 NMtDS0=    0 NMtDT0=    0
 Symmetry not used in FoFCou.
 Two-electron integral symmetry not used.
 Closed shell SCF:
 Using DIIS extrapolation, IDIIS=  1040.
 NGot=   262144000 LenX=   261963332 LenY=   261961666
 Requested convergence on RMS density matrix=1.00D-08 within 128 cycles.
 Requested convergence on MAX density matrix=1.00D-06.
 Requested convergence on             energy=1.00D-06.
 No special actions if energy rises.
 Integral accuracy reduced to 1.0D-05 until final iterations.

 Cycle   1  Pass 0  IDiag  1:
 E= -40.4497381405156    
 DIIS: error= 4.46D-03 at cycle   1 NSaved=   1.
 NSaved= 1 IEnMin= 1 EnMin= -40.4497381405156     IErMin= 1 ErrMin= 4.46D-03
 ErrMax= 4.46D-03  0.00D+00 EMaxC= 1.00D-01 BMatC= 3.53D-04 BMatP= 3.53D-04
 IDIUse=3 WtCom= 9.55D-01 WtEn= 4.46D-02
 Coeff-Com:  0.100D+01
 Coeff-En:   0.100D+01
 Coeff:      0.100D+01
 Gap=     0.799 Goal=   None    Shift=    0.000
 GapD=    0.799 DampG=2.000 DampE=1.000 DampFc=2.0000 IDamp=-1.
 RMSDP=7.93D-04 MaxDP=8.91D-03              OVMax= 7.42D-03

 Cycle   2  Pass 0  IDiag  1:
 E= -40.4500788324286     Delta-E=       -0.000340691913 Rises=F Damp=F
 DIIS: error= 1.36D-03 at cycle   2 NSaved=   2.
 NSaved= 2 IEnMin= 2 EnMin= -40.4500788324286     IErMin= 2 ErrMin= 1.36D-03
 ErrMax= 1.36D-03  0.00D+00 EMaxC= 1.00D-01 BMatC= 5.67D-05 BMatP= 3.53D-04
 IDIUse=3 WtCom= 9.86D-01 WtEn= 1.36D-02
 Coeff-Com:  0.188D+00 0.812D+00
 Coeff-En:   0.000D+00 0.100D+01
 Coeff:      0.186D+00 0.814D+00
 Gap=     0.569 Goal=   None    Shift=    0.000
 RMSDP=2.59D-04 MaxDP=4.19D-03 DE=-3.41D-04 OVMax= 3.26D-03

 Cycle   3  Pass 0  IDiag  1:
 E= -40.4501233823449     Delta-E=       -0.000044549916 Rises=F Damp=F
 DIIS: error= 6.54D-04 at cycle   3 NSaved=   3.
 NSaved= 3 IEnMin= 3 EnMin= -40.4501233823449     IErMin= 3 ErrMin= 6.54D-04
 ErrMax= 6.54D-04  0.00D+00 EMaxC= 1.00D-01 BMatC= 1.29D-05 BMatP= 5.67D-05
 IDIUse=3 WtCom= 9.93D-01 WtEn= 6.54D-03
 Coeff-Com: -0.252D-01 0.316D+00 0.709D+00
 Coeff-En:   0.000D+00 0.101D+00 0.899D+00
 Coeff:     -0.250D-01 0.314D+00 0.711D+00
 Gap=     0.568 Goal=   None    Shift=    0.000
 RMSDP=8.26D-05 MaxDP=1.00D-03 DE=-4.45D-05 OVMax= 1.16D-03

 Cycle   4  Pass 0  IDiag  1:
 E= -40.4501369818079     Delta-E=       -0.000013599463 Rises=F Damp=F
 DIIS: error= 2.09D-05 at cycle   4 NSaved=   4.
 NSaved= 4 IEnMin= 4 EnMin= -40.4501369818079     IErMin= 4 ErrMin= 2.09D-05
 ErrMax= 2.09D-05  0.00D+00 EMaxC= 1.00D-01 BMatC= 5.43D-09 BMatP= 1.29D-05
 IDIUse=1 WtCom= 1.00D+00 WtEn= 0.00D+00
 Coeff-Com:  0.758D-03-0.312D-01-0.567D-01 0.109D+01
 Coeff:      0.758D-03-0.312D-01-0.567D-01 0.109D+01
 Gap=     0.568 Goal=   None    Shift=    0.000
 RMSDP=3.21D-06 MaxDP=6.26D-05 DE=-1.36D-05 OVMax= 5.19D-05

 Initial convergence to 1.0D-05 achieved.  Increase integral accuracy.
 Cycle   5  Pass 1  IDiag  1:
 E= -40.4501458682538     Delta-E=       -0.000008886446 Rises=F Damp=F
 DIIS: error= 1.71D-05 at cycle   1 NSaved=   1.
 NSaved= 1 IEnMin= 1 EnMin= -40.4501458682538     IErMin= 1 ErrMin= 1.71D-05
 ErrMax= 1.71D-05  0.00D+00 EMaxC= 1.00D-01 BMatC= 1.28D-08 BMatP= 1.28D-08
 IDIUse=1 WtCom= 1.00D+00 WtEn= 0.00D+00
 Coeff-Com:  0.100D+01
 Coeff:      0.100D+01
 Gap=     0.568 Goal=   None    Shift=    0.000
 RMSDP=3.21D-06 MaxDP=6.26D-05 DE=-8.89D-06 OVMax= 5.60D-05

 Cycle   6  Pass 1  IDiag  1:
 E= -40.4501458830226     Delta-E=       -0.000000014769 Rises=F Damp=F
 DIIS: error= 2.55D-06 at cycle   2 NSaved=   2.
 NSaved= 2 IEnMin= 2 EnMin= -40.4501458830226     IErMin= 2 ErrMin= 2.55D-06
 ErrMax= 2.55D-06  0.00D+00 EMaxC= 1.00D-01 BMatC= 1.90D-10 BMatP= 1.28D-08
 IDIUse=1 WtCom= 1.00D+00 WtEn= 0.00D+00
 Coeff-Com: -0.176D-01 0.102D+01
 Coeff:     -0.176D-01 0.102D+01
 Gap=     0.568 Goal=   None    Shift=    0.000
 RMSDP=6.26D-07 MaxDP=5.96D-06 DE=-1.48D-08 OVMax= 6.24D-06

 Cycle   7  Pass 1  IDiag  1:
 E= -40.4501458832303     Delta-E=       -0.000000000208 Rises=F Damp=F
 DIIS: error= 1.10D-06 at cycle   3 NSaved=   3.
 NSaved= 3 IEnMin= 3 EnMin= -40.4501458832303     IErMin= 3 ErrMin= 1.10D-06
 ErrMax= 1.10D-06  0.00D+00 EMaxC= 1.00D-01 BMatC= 2.42D-11 BMatP= 1.90D-10
 IDIUse=1 WtCom= 1.00D+00 WtEn= 0.00D+00
 Coeff-Com: -0.138D-01 0.219D+00 0.794D+00
 Coeff:     -0.138D-01 0.219D+00 0.794D+00
 Gap=     0.568 Goal=   None    Shift=    0.000
 RMSDP=1.79D-07 MaxDP=1.87D-06 DE=-2.08D-10 OVMax= 2.82D-06

 Cycle   8  Pass 1  IDiag  1:
 E= -40.4501458832555     Delta-E=       -0.000000000025 Rises=F Damp=F
 DIIS: error= 2.99D-07 at cycle   4 NSaved=   4.
 NSaved= 4 IEnMin= 4 EnMin= -40.4501458832555     IErMin= 4 ErrMin= 2.99D-07
 ErrMax= 2.99D-07  0.00D+00 EMaxC= 1.00D-01 BMatC= 3.40D-12 BMatP= 2.42D-11
 IDIUse=1 WtCom= 1.00D+00 WtEn= 0.00D+00
 Coeff-Com: -0.296D-02 0.667D-02 0.260D+00 0.737D+00
 Coeff:     -0.296D-02 0.667D-02 0.260D+00 0.737D+00
 Gap=     0.568 Goal=   None    Shift=    0.000
 RMSDP=5.45D-08 MaxDP=8.25D-07 DE=-2.51D-11 OVMax= 6.22D-07

 Cycle   9  Pass 1  IDiag  1:
 E= -40.4501458832590     Delta-E=       -0.000000000004 Rises=F Damp=F
 DIIS: error= 5.98D-08 at cycle   5 NSaved=   5.
 NSaved= 5 IEnMin= 5 EnMin= -40.4501458832590     IErMin= 5 ErrMin= 5.98D-08
 ErrMax= 5.98D-08  0.00D+00 EMaxC= 1.00D-01 BMatC= 9.57D-14 BMatP= 3.40D-12
 IDIUse=1 WtCom= 1.00D+00 WtEn= 0.00D+00
 Coeff-Com:  0.334D-03-0.143D-01 0.873D-04 0.147D+00 0.867D+00
 Coeff:      0.334D-03-0.143D-01 0.873D-04 0.147D+00 0.867D+00
 Gap=     0.568 Goal=   None    Shift=    0.000
 RMSDP=1.42D-08 MaxDP=1.03D-07 DE=-3.55D-12 OVMax= 1.78D-07

 Cycle  10  Pass 1  IDiag  1:
 E= -40.4501458832590     Delta-E=        0.000000000000 Rises=F Damp=F
 DIIS: error= 4.53D-09 at cycle   6 NSaved=   6.
 NSaved= 6 IEnMin= 5 EnMin= -40.4501458832590     IErMin= 6 ErrMin= 4.53D-09
 ErrMax= 4.53D-09  0.00D+00 EMaxC= 1.00D-01 BMatC= 1.04D-15 BMatP= 9.57D-14
 IDIUse=1 WtCom= 1.00D+00 WtEn= 0.00D+00
 Coeff-Com:  0.910D-04-0.334D-03-0.706D-02-0.252D-01-0.828D-02 0.104D+01
 Coeff:      0.910D-04-0.334D-03-0.706D-02-0.252D-01-0.828D-02 0.104D+01
 Gap=     0.568 Goal=   None    Shift=    0.000
 RMSDP=2.41D-09 MaxDP=1.74D-08 DE= 2.84D-14 OVMax= 2.73D-08

 SCF Done:  E(RM062X) =  -40.4501458833     A.U. after   10 cycles
            NFock= 10  Conv=0.24D-08     -V/T= 2.0151
 KE= 3.985023972541D+01 PE=-1.194376325566D+02 EE= 2.578633064226D+01
 Leave Link  502 at Sun May 29 19:28:57 2022, MaxMem=   262144000 cpu:               2.8 elap:               0.7
 (Enter /binaries/g16/l701.exe)
 ... and contract with generalized density number  0.
 Compute integral first derivatives.
   1 Symmetry operations used in ECPInt.
 ECPInt:  NShTT=     171 NPrTT=     553 LenC2=     172 LenP2D=     539.
 LDataN:  DoStor=T MaxTD1= 5 Len=  102
 Leave Link  701 at Sun May 29 19:28:57 2022, MaxMem=   262144000 cpu:               0.3 elap:               0.1
 (Enter /binaries/g16/l702.exe)
 L702 exits ... SP integral derivatives will be done elsewhere.
 Leave Link  702 at Sun May 29 19:28:57 2022, MaxMem=   262144000 cpu:               0.1 elap:               0.0
 (Enter /binaries/g16/l703.exe)
 Integral derivatives from FoFJK, PRISM(SPDF).
 Compute integral first derivatives, UseDBF=F ICtDFT=           0.
 Calling FoFJK, ICntrl=      2127 FMM=F ISym2X=0 I1Cent= 0 IOpClX= 0 NMat=1 NMatS=1 NMatT=0.
 FoFJK:  IHMeth= 1 ICntrl=    2127 DoSepK=F KAlg= 0 I1Cent=           0 FoldK=F
 IRaf=         0 NMat=       1 IRICut=       1 DoRegI=T DoRafI=F ISym2E= 0 IDoP0=0 IntGTp=1.
 FoFCou: FMM=F IPFlag=           0 FMFlag=      100000 FMFlg1=         800
         NFxFlg=           0 DoJE=F BraDBF=F KetDBF=F FulRan=T
         wScrn=  0.000000 ICntrl=      2127 IOpCl=  0 I1Cent=           0 NGrid=           0
         NMat0=    1 NMatS0=      1 NMatT0=    0 NMatD0=    1 NMtDS0=    0 NMtDT0=    0
 Symmetry not used in FoFCou.
 Leave Link  703 at Sun May 29 19:28:57 2022, MaxMem=   262144000 cpu:               0.7 elap:               0.2
 (Enter /binaries/g16/l716.exe)
 Dipole        = 2.77703580D-04-1.90401214D-05 2.32206045D-04
 ***** Axes restored to original set *****
 -------------------------------------------------------------------
 Center     Atomic                   Forces (Hartrees/Bohr)
 Number     Number              X              Y              Z
 -------------------------------------------------------------------
      1        6          -0.000018822   -0.000035525   -0.000248803
      2        1          -0.000147775    0.000362258    0.000099935
      3        1          -0.000144354   -0.000202256   -0.000278690
      4        1          -0.000079856   -0.000107430    0.000329426
      5        1           0.000390808   -0.000017047    0.000098132
 -------------------------------------------------------------------
 Cartesian Forces:  Max     0.000390808 RMS     0.000208978
 Leave Link  716 at Sun May 29 19:28:57 2022, MaxMem=   262144000 cpu:               0.1 elap:               0.0
 (Enter /binaries/g16/l103.exe)

 GradGradGradGradGradGradGradGradGradGradGradGradGradGradGradGradGradGrad
 Berny optimization.
 Using GEDIIS/GDIIS optimizer.
 FormGI is forming the generalized inverse of G from B-inverse, IUseBI=4.
 Internal  Forces:  Max     0.000390794 RMS     0.000205052
 Search for a local minimum.
 Step number   2 out of a maximum of   24
 All quantities printed in internal units (Hartrees-Bohrs-Radians)
 RMS Force = .20505D-03 SwitMx=.10000D-02 MixMth= 2
 Mixed Optimization -- En-DIIS/RFO-DIIS
 Update second derivatives using D2CorX and points    1    2
 DE= -1.79D-03 DEPred=-1.89D-03 R= 9.46D-01
 TightC=F SS=  1.41D+00  RLast= 9.98D-02 DXNew= 5.0454D-01 2.9931D-01
 Trust test= 9.46D-01 RLast= 9.98D-02 DXMaxT set to 3.00D-01
 The second derivative matrix:
                          R1        R2        R3        R4        A1
           R1           0.37531
           R2           0.00301   0.37832
           R3           0.00260   0.00261   0.36834
           R4           0.00302   0.00301   0.00260   0.37532
           A1           0.00007   0.00007   0.00005   0.00007   0.16000
           A2          -0.00047  -0.00052  -0.00038  -0.00047  -0.00000
           A3          -0.00015  -0.00016  -0.00012  -0.00015  -0.00000
           A4           0.00056   0.00062   0.00045   0.00056   0.00000
           A5           0.00040   0.00044   0.00032   0.00040   0.00000
           A6          -0.00041  -0.00045  -0.00033  -0.00041  -0.00000
           D1           0.00016   0.00017   0.00013   0.00016   0.00000
           D2           0.00050   0.00055   0.00040   0.00050   0.00000
           D3           0.00013   0.00014   0.00011   0.00013   0.00000
           D4          -0.00037  -0.00040  -0.00030  -0.00037  -0.00000
                          A2        A3        A4        A5        A6
           A2           0.16000
           A3          -0.00000   0.16000
           A4           0.00001   0.00000   0.15999
           A5          -0.00000  -0.00000  -0.00000   0.16000
           A6          -0.00000  -0.00000   0.00000  -0.00000   0.16000
           D1          -0.00000  -0.00000  -0.00000   0.00000  -0.00000
           D2          -0.00000  -0.00000  -0.00000   0.00000   0.00000
           D3           0.00000  -0.00000  -0.00000   0.00000   0.00000
           D4           0.00000   0.00000   0.00000  -0.00000   0.00000
                          D1        D2        D3        D4
           D1           0.00434
           D2           0.00000   0.00500
           D3           0.00000   0.00000   0.00499
           D4          -0.00000  -0.00000  -0.00000   0.00500
 ITU=  1  0
 Use linear search instead of GDIIS.
     Eigenvalues ---    0.05256   0.05897   0.08736   0.15999   0.16000
     Eigenvalues ---    0.36699   0.37230   0.37414   0.38387
 RFO step:  Lambda=-3.55496924D-07 EMin= 5.25592409D-02
 Quartic linear search produced a step of -0.02103.
 Iteration  1 RMS(Cart)=  0.00068234 RMS(Int)=  0.00000040
 Iteration  2 RMS(Cart)=  0.00000030 RMS(Int)=  0.00000022
 ITry= 1 IFail=0 DXMaxC= 1.17D-03 DCOld= 1.00D+10 DXMaxT= 3.00D-01 DXLimC= 3.00D+00 Rises=F
 Variable       Old X    -DE/DX   Delta X   Delta X   Delta X     New X
                                 (Linear)    (Quad)   (Total)
    R1        2.07288  -0.00039  -0.00107  -0.00002  -0.00109   2.07179
    R2        2.07273  -0.00037  -0.00116   0.00013  -0.00104   2.07170
    R3        2.07284  -0.00035  -0.00087  -0.00011  -0.00098   2.07186
    R4        2.07288  -0.00039  -0.00107  -0.00002  -0.00109   2.07179
    A1        1.91155  -0.00001  -0.00000  -0.00059  -0.00060   1.91095
    A2        1.90947   0.00004  -0.00001   0.00079   0.00078   1.91026
    A3        1.91079  -0.00003  -0.00000  -0.00016  -0.00016   1.91063
    A4        1.91086  -0.00002   0.00003  -0.00018  -0.00015   1.91071
    A5        1.91158  -0.00006  -0.00000  -0.00064  -0.00064   1.91094
    A6        1.90955   0.00008  -0.00001   0.00078   0.00077   1.91032
    D1       -2.09494   0.00000  -0.00001   0.00035   0.00034  -2.09460
    D2        2.09619  -0.00007  -0.00001  -0.00122  -0.00122   2.09497
    D3       -2.09241  -0.00008   0.00002  -0.00135  -0.00133  -2.09374
    D4        2.09459  -0.00001   0.00003  -0.00014  -0.00011   2.09448
         Item               Value     Threshold  Converged?
 Maximum Force            0.000391     0.000450     YES
 RMS     Force            0.000205     0.000300     YES
 Maximum Displacement     0.001175     0.001800     YES
 RMS     Displacement     0.000682     0.001200     YES
 Predicted change in Energy=-9.021727D-07
 Optimization completed.
    -- Stationary point found.
                           ----------------------------
                           !   Optimized Parameters   !
                           ! (Angstroms and Degrees)  !
 --------------------------                            --------------------------
 ! Name  Definition              Value          Derivative Info.                !
 --------------------------------------------------------------------------------
 ! R1    R(1,2)                  1.0969         -DE/DX =   -0.0004              !
 ! R2    R(1,3)                  1.0968         -DE/DX =   -0.0004              !
 ! R3    R(1,4)                  1.0969         -DE/DX =   -0.0003              !
 ! R4    R(1,5)                  1.0969         -DE/DX =   -0.0004              !
 ! A1    A(2,1,3)              109.5235         -DE/DX =    0.0                 !
 ! A2    A(2,1,4)              109.4048         -DE/DX =    0.0                 !
 ! A3    A(2,1,5)              109.4799         -DE/DX =    0.0                 !
 ! A4    A(3,1,4)              109.4841         -DE/DX =    0.0                 !
 ! A5    A(3,1,5)              109.5255         -DE/DX =   -0.0001              !
 ! A6    A(4,1,5)              109.4093         -DE/DX =    0.0001              !
 ! D1    D(2,1,4,3)           -120.0312         -DE/DX =    0.0                 !
 ! D2    D(2,1,5,3)            120.1027         -DE/DX =   -0.0001              !
 ! D3    D(2,1,5,4)           -119.8862         -DE/DX =   -0.0001              !
 ! D4    D(3,1,5,4)            120.0111         -DE/DX =    0.0                 !
 --------------------------------------------------------------------------------
 Lowest energy point so far.  Saving SCF results.
 Largest change from initial coordinates is atom    4       0.743 Angstoms.
 GradGradGradGradGradGradGradGradGradGradGradGradGradGradGradGradGradGrad

 Leave Link  103 at Sun May 29 19:28:57 2022, MaxMem=   262144000 cpu:               0.0 elap:               0.0
 (Enter /binaries/g16/l202.exe)
                          Input orientation:                          
 ---------------------------------------------------------------------
 Center     Atomic      Atomic             Coordinates (Angstroms)
 Number     Number       Type             X           Y           Z
 ---------------------------------------------------------------------
      1          6           0        4.291823    3.658829   -0.001272
      2          1           0        4.657557    2.624674   -0.001100
      3          1           0        4.658600    4.177495    0.892890
      4          1           0        4.656219    4.174105   -0.898432
      5          1           0        3.194902    3.658897   -0.001087
 ---------------------------------------------------------------------
                    Distance matrix (angstroms):
                    1          2          3          4          5
     1  C    0.000000
     2  H    1.096922   0.000000
     3  H    1.096843   1.791779   0.000000
     4  H    1.096900   1.790514   1.791327   0.000000
     5  H    1.096921   1.791361   1.791801   1.790563   0.000000
 Stoichiometry    CH4
 Framework group  C1[X(CH4)]
 Deg. of freedom     9
 Full point group                 C1      NOp   1
 RotChk:  IX=0 Diff= 3.14D-13
 Largest Abelian subgroup         C1      NOp   1
 Largest concise Abelian subgroup C1      NOp   1
                         Standard orientation:                         
 ---------------------------------------------------------------------
 Center     Atomic      Atomic             Coordinates (Angstroms)
 Number     Number       Type             X           Y           Z
 ---------------------------------------------------------------------
      1          6           0       -0.000212    0.000013   -0.000158
      2          1           0        0.396340   -0.886378   -0.510351
      3          1           0       -1.094024    0.010772   -0.080923
      4          1           0        0.288273   -0.028837    1.057733
      5          1           0        0.410681    0.904365   -0.465508
 ---------------------------------------------------------------------
 Rotational constants (GHZ):         156.3630177         156.3022694         156.2056359
 Leave Link  202 at Sun May 29 19:28:57 2022, MaxMem=   262144000 cpu:               0.0 elap:               0.0
 (Enter /binaries/g16/l601.exe)
 Copying SCF densities to generalized density rwf, IOpCl= 0 IROHF=0.

 **********************************************************************

            Population analysis using the SCF Density.

 **********************************************************************

 Orbital symmetries:
       Occupied  (A) (A) (A) (A) (A)
       Virtual   (A) (A) (A) (A) (A) (A) (A) (A) (A) (A) (A) (A)
                 (A) (A) (A) (A) (A) (A) (A) (A) (A) (A) (A) (A)
                 (A) (A) (A) (A) (A)
 The electronic state is 1-A.
 Alpha  occ. eigenvalues --  -10.53698  -0.77166  -0.45155  -0.45141  -0.45126
 Alpha virt. eigenvalues --    0.11640   0.18800   0.18801   0.18803   0.46633
 Alpha virt. eigenvalues --    0.46650   0.46660   0.71206   0.74356   0.74360
 Alpha virt. eigenvalues --    0.74367   0.82712   1.15840   1.15850   1.58373
 Alpha virt. eigenvalues --    1.58396   1.58423   1.81078   1.81107   1.81141
 Alpha virt. eigenvalues --    2.15405   2.15480   2.15567   2.54479   2.54490
 Alpha virt. eigenvalues --    2.59924   2.92254   2.92275   2.92321
          Condensed to atoms (all electrons):
               1          2          3          4          5
     1  C    4.589189   0.406655   0.406723   0.406609   0.406659
     2  H    0.406655   0.600717  -0.020420  -0.020475  -0.020434
     3  H    0.406723  -0.020420   0.600471  -0.020431  -0.020420
     4  H    0.406609  -0.020475  -0.020431   0.600932  -0.020472
     5  H    0.406659  -0.020434  -0.020420  -0.020472   0.600703
 Mulliken charges:
               1
     1  C   -0.215834
     2  H    0.053956
     3  H    0.054077
     4  H    0.053838
     5  H    0.053963
 Sum of Mulliken charges =   0.00000
 Mulliken charges with hydrogens summed into heavy atoms:
               1
     1  C    0.000000
 Electronic spatial extent (au):  <R**2>=             35.6985
 Charge=              0.0000 electrons
 Dipole moment (field-independent basis, Debye):
    X=              0.0007    Y=             -0.0000    Z=              0.0006  Tot=              0.0009
 Quadrupole moment (field-independent basis, Debye-Ang):
   XX=             -8.2969   YY=             -8.2995   ZZ=             -8.3028
   XY=              0.0000   XZ=             -0.0001   YZ=             -0.0000
 Traceless Quadrupole moment (field-independent basis, Debye-Ang):
   XX=              0.0028   YY=              0.0003   ZZ=             -0.0031
   XY=              0.0000   XZ=             -0.0001   YZ=             -0.0000
 Octapole moment (field-independent basis, Debye-Ang**2):
  XXX=             -0.7575  YYY=              0.0283  ZZZ=              0.6228  XYY=              0.4257
  XXY=              0.0156  XXZ=             -0.1097  XZZ=              0.3333  YZZ=             -0.0440
  YYZ=             -0.5117  XYZ=             -0.0009
 Hexadecapole moment (field-independent basis, Debye-Ang**3):
 XXXX=            -15.1145 YYYY=            -15.3465 ZZZZ=            -15.2525 XXXY=             -0.0082
 XXXZ=              0.0756 YYYX=              0.0312 YYYZ=              0.0125 ZZZX=              0.2788
 ZZZY=             -0.0085 XXYY=             -5.3037 XXZZ=             -5.3969 YYZZ=             -5.1667
 XXYZ=             -0.0040 YYXZ=             -0.3548 ZZXY=             -0.0230
 N-N= 1.335091630566D+01 E-N=-1.194376326414D+02  KE= 3.985023972541D+01
 No NMR shielding tensors so no spin-rotation constants.
 Leave Link  601 at Sun May 29 19:28:57 2022, MaxMem=   262144000 cpu:               0.2 elap:               0.1
 (Enter /binaries/g16/l607.exe)
 ******************************Gaussian NBO Version 3.1******************************
             N A T U R A L   A T O M I C   O R B I T A L   A N D
          N A T U R A L   B O N D   O R B I T A L   A N A L Y S I S
 ******************************Gaussian NBO Version 3.1******************************
       /RESON  / : Allow strongly delocalized NBO set

 Analyzing the SCF density

 Job title: File created by ccinput                                         

 Storage needed:      3658 in NPA,      4765 in NBO ( 262143825 available)
 GSVD:  LWork=         442 too small for GESVD, short by         986 words or         986 for optimal perf.


 NATURAL POPULATIONS:  Natural atomic orbital occupancies 
                                                          
   NAO  Atom  No  lang   Type(AO)    Occupancy      Energy
 ----------------------------------------------------------
     1    C    1  S      Cor( 1S)     1.99944     -10.42682
     2    C    1  S      Val( 2S)     1.16784      -0.26795
     3    C    1  S      Ryd( 3S)     0.00000       0.79246
     4    C    1  px     Val( 2p)     1.22828      -0.08118
     5    C    1  px     Ryd( 3p)     0.00000       0.57098
     6    C    1  py     Val( 2p)     1.22830      -0.08126
     7    C    1  py     Ryd( 3p)     0.00000       0.57097
     8    C    1  pz     Val( 2p)     1.22833      -0.08134
     9    C    1  pz     Ryd( 3p)     0.00000       0.57094
    10    C    1  dxy    Ryd( 3d)     0.00024       2.26531
    11    C    1  dxz    Ryd( 3d)     0.00016       2.21583
    12    C    1  dyz    Ryd( 3d)     0.00035       2.33580
    13    C    1  dx2y2  Ryd( 3d)     0.00051       2.44306
    14    C    1  dz2    Ryd( 3d)     0.00050       2.43104

    15    H    2  S      Val( 1S)     0.78506       0.09348
    16    H    2  S      Ryd( 2S)     0.00051       0.37460
    17    H    2  px     Ryd( 2p)     0.00020       1.82196
    18    H    2  py     Ryd( 2p)     0.00050       2.16950
    19    H    2  pz     Ryd( 2p)     0.00025       1.87868

    20    H    3  S      Val( 1S)     0.78505       0.09354
    21    H    3  S      Ryd( 2S)     0.00051       0.37450
    22    H    3  px     Ryd( 2p)     0.00069       2.39698
    23    H    3  py     Ryd( 2p)     0.00012       1.73505
    24    H    3  pz     Ryd( 2p)     0.00013       1.73833

    25    H    4  S      Val( 1S)     0.78508       0.09348
    26    H    4  S      Ryd( 2S)     0.00051       0.37464
    27    H    4  px     Ryd( 2p)     0.00016       1.78097
    28    H    4  py     Ryd( 2p)     0.00013       1.73513
    29    H    4  pz     Ryd( 2p)     0.00066       2.35412

    30    H    5  S      Val( 1S)     0.78506       0.09348
    31    H    5  S      Ryd( 2S)     0.00051       0.37459
    32    H    5  px     Ryd( 2p)     0.00020       1.82837
    33    H    5  py     Ryd( 2p)     0.00051       2.18731
    34    H    5  pz     Ryd( 2p)     0.00023       1.85446


 Summary of Natural Population Analysis:                  
                                                          
                                       Natural Population 
                Natural  -----------------------------------------------
    Atom  No    Charge         Core      Valence    Rydberg      Total
 -----------------------------------------------------------------------
      C    1   -0.85395      1.99944     4.85275    0.00176     6.85395
      H    2    0.21349      0.00000     0.78506    0.00145     0.78651
      H    3    0.21350      0.00000     0.78505    0.00145     0.78650
      H    4    0.21347      0.00000     0.78508    0.00146     0.78653
      H    5    0.21349      0.00000     0.78506    0.00145     0.78651
 =======================================================================
   * Total *   -0.00000      1.99944     7.99299    0.00758    10.00000

                                 Natural Population      
 --------------------------------------------------------
   Core                       1.99944 ( 99.9718% of   2)
   Valence                    7.99299 ( 99.9123% of   8)
   Natural Minimal Basis      9.99242 ( 99.9242% of  10)
   Natural Rydberg Basis      0.00758 (  0.0758% of  10)
 --------------------------------------------------------

    Atom  No          Natural Electron Configuration
 ----------------------------------------------------------------------------
      C    1      [core]2S( 1.17)2p( 3.68)
      H    2            1S( 0.79)
      H    3            1S( 0.79)
      H    4            1S( 0.79)
      H    5            1S( 0.79)


 NATURAL BOND ORBITAL ANALYSIS:

                       Occupancies       Lewis Structure    Low   High
           Occ.    -------------------  -----------------   occ   occ
  Cycle   Thresh.   Lewis   Non-Lewis     CR  BD  3C  LP    (L)   (NL)   Dev
 =============================================================================
   1(1)    1.90     9.99534   0.00466      1   4   0   0     0      0    0.00
 -----------------------------------------------------------------------------

 Structure accepted: No low occupancy Lewis orbitals

 --------------------------------------------------------
   Core                      1.99944 ( 99.972% of   2)
   Valence Lewis             7.99591 ( 99.949% of   8)
  ==================       ============================
   Total Lewis               9.99534 ( 99.953% of  10)
  -----------------------------------------------------
   Valence non-Lewis         0.00143 (  0.014% of  10)
   Rydberg non-Lewis         0.00322 (  0.032% of  10)
  ==================       ============================
   Total non-Lewis           0.00466 (  0.047% of  10)
 --------------------------------------------------------


       (Occupancy)   Bond orbital/ Coefficients/ Hybrids
 ---------------------------------------------------------------------------------
     1. (1.99898) BD ( 1) C   1 - H   2  
                ( 60.71%)   0.7791* C   1 s( 25.00%)p 3.00( 74.97%)d 0.00(  0.04%)
                                            0.0001  0.5000 -0.0000  0.3126  0.0000
                                           -0.6996  0.0000 -0.4031  0.0000 -0.0096
                                           -0.0055  0.0123 -0.0086 -0.0033
                ( 39.29%)   0.6269* H   2 s( 99.92%)p 0.00(  0.08%)
                                            0.9996  0.0007 -0.0103  0.0230  0.0133
     2. (1.99898) BD ( 1) C   1 - H   3  
                ( 60.71%)   0.7791* C   1 s( 25.03%)p 2.99( 74.94%)d 0.00(  0.04%)
                                           -0.0001 -0.5003 -0.0000  0.8632  0.0000
                                           -0.0085 -0.0000  0.0640 -0.0000  0.0003
                                           -0.0024  0.0000 -0.0163  0.0093
                ( 39.29%)   0.6268* H   3 s( 99.92%)p 0.00(  0.08%)
                                           -0.9996 -0.0007 -0.0284  0.0003 -0.0021
     3. (1.99897) BD ( 1) C   1 - H   4  
                ( 60.70%)   0.7791* C   1 s( 24.97%)p 3.00( 74.99%)d 0.00(  0.04%)
                                            0.0001  0.4997 -0.0000  0.2273  0.0000
                                           -0.0228 -0.0000  0.8353 -0.0000 -0.0002
                                            0.0083 -0.0008  0.0011  0.0170
                ( 39.30%)   0.6269* H   4 s( 99.92%)p 0.00(  0.08%)
                                            0.9996  0.0007 -0.0075  0.0007 -0.0275
     4. (1.99898) BD ( 1) C   1 - H   5  
                ( 60.71%)   0.7791* C   1 s( 25.00%)p 3.00( 74.96%)d 0.00(  0.04%)
                                            0.0001  0.5000 -0.0000  0.3239  0.0000
                                            0.7138 -0.0000 -0.3677  0.0000  0.0101
                                           -0.0052 -0.0115 -0.0088 -0.0044
                ( 39.29%)   0.6269* H   5 s( 99.92%)p 0.00(  0.08%)
                                            0.9996  0.0007 -0.0107 -0.0235  0.0121
     5. (1.99944) CR ( 1) C   1           s(100.00%)
                                            1.0000 -0.0003  0.0000 -0.0000  0.0000
                                            0.0000  0.0000 -0.0000 -0.0000  0.0000
                                           -0.0000  0.0000  0.0000 -0.0000
     6. (0.00000) RY*( 1) C   1           s(100.00%)
     7. (0.00000) RY*( 2) C   1           s(  0.00%)p 1.00(100.00%)
     8. (0.00000) RY*( 3) C   1           s(  0.00%)p 1.00(100.00%)
     9. (0.00000) RY*( 4) C   1           s(  0.00%)p 1.00(100.00%)
    10. (0.00000) RY*( 5) C   1           s(  0.00%)p 1.00(  0.02%)d99.99( 99.98%)
    11. (0.00000) RY*( 6) C   1           s(  0.00%)p 1.00(  0.01%)d99.99( 99.99%)
    12. (0.00000) RY*( 7) C   1           s(  0.00%)p 1.00(  0.03%)d99.99( 99.97%)
    13. (0.00000) RY*( 8) C   1           s(  0.00%)p 1.00(  0.04%)d99.99( 99.96%)
    14. (0.00000) RY*( 9) C   1           s(  0.00%)p 1.00(  0.04%)d99.99( 99.96%)
    15. (0.00056) RY*( 1) H   2           s( 91.16%)p 0.10(  8.84%)
                                            0.0078  0.9547  0.1061 -0.2400 -0.1399
    16. (0.00012) RY*( 2) H   2           s(  0.00%)p 1.00(100.00%)
                                            0.0001  0.0009  0.9332  0.3115  0.1793
    17. (0.00012) RY*( 3) H   2           s(  0.00%)p 1.00(100.00%)
                                            0.0001  0.0009  0.0007 -0.5005  0.8657
    18. (0.00000) RY*( 4) H   2           s(  8.92%)p10.21( 91.08%)
    19. (0.00056) RY*( 1) H   3           s( 91.12%)p 0.10(  8.88%)
                                            0.0078  0.9545 -0.2971  0.0030 -0.0227
    20. (0.00012) RY*( 2) H   3           s(  0.00%)p 1.00(100.00%)
                                           -0.0000 -0.0000  0.0099  1.0000  0.0007
    21. (0.00012) RY*( 3) H   3           s(  0.00%)p 1.00(100.00%)
                                            0.0000  0.0004 -0.0748 -0.0000  0.9972
    22. (0.00000) RY*( 4) H   3           s(  8.96%)p10.16( 91.04%)
    23. (0.00056) RY*( 1) H   4           s( 91.20%)p 0.10(  8.80%)
                                            0.0078  0.9549  0.0765 -0.0077  0.2866
    24. (0.00012) RY*( 2) H   4           s(  0.00%)p 1.00(100.00%)
                                            0.0001  0.0010  0.9654  0.0001 -0.2609
    25. (0.00012) RY*( 3) H   4           s(  0.00%)p 1.00(100.00%)
                                           -0.0000 -0.0001  0.0067  0.9997  0.0253
    26. (0.00000) RY*( 4) H   4           s(  8.88%)p10.26( 91.12%)
    27. (0.00056) RY*( 1) H   5           s( 91.16%)p 0.10(  8.84%)
                                            0.0078  0.9547  0.1100  0.2450 -0.1277
    28. (0.00012) RY*( 2) H   5           s(  0.00%)p 1.00(100.00%)
                                            0.0001  0.0009  0.9280 -0.3312  0.1705
    29. (0.00012) RY*( 3) H   5           s(  0.00%)p 1.00(100.00%)
                                            0.0001  0.0009  0.0006  0.4591  0.8884
    30. (0.00000) RY*( 4) H   5           s(  8.92%)p10.21( 91.08%)
    31. (0.00036) BD*( 1) C   1 - H   2  
                ( 39.29%)   0.6269* C   1 s( 25.00%)p 3.00( 74.97%)d 0.00(  0.04%)
                                           -0.0001 -0.5000  0.0000 -0.3126 -0.0000
                                            0.6996 -0.0000  0.4031 -0.0000  0.0096
                                            0.0055 -0.0123  0.0086  0.0033
                ( 60.71%)  -0.7791* H   2 s( 99.92%)p 0.00(  0.08%)
                                           -0.9996 -0.0007  0.0103 -0.0230 -0.0133
    32. (0.00036) BD*( 1) C   1 - H   3  
                ( 39.29%)   0.6268* C   1 s( 25.03%)p 2.99( 74.94%)d 0.00(  0.04%)
                                            0.0001  0.5003  0.0000 -0.8632 -0.0000
                                            0.0085  0.0000 -0.0640  0.0000 -0.0003
                                            0.0024 -0.0000  0.0163 -0.0093
                ( 60.71%)  -0.7791* H   3 s( 99.92%)p 0.00(  0.08%)
                                            0.9996  0.0007  0.0284 -0.0003  0.0021
    33. (0.00036) BD*( 1) C   1 - H   4  
                ( 39.30%)   0.6269* C   1 s( 24.97%)p 3.00( 74.99%)d 0.00(  0.04%)
                                           -0.0001 -0.4997  0.0000 -0.2273 -0.0000
                                            0.0228  0.0000 -0.8353  0.0000  0.0002
                                           -0.0083  0.0008 -0.0011 -0.0170
                ( 60.70%)  -0.7791* H   4 s( 99.92%)p 0.00(  0.08%)
                                           -0.9996 -0.0007  0.0075 -0.0007  0.0275
    34. (0.00036) BD*( 1) C   1 - H   5  
                ( 39.29%)   0.6269* C   1 s( 25.00%)p 3.00( 74.96%)d 0.00(  0.04%)
                                           -0.0001 -0.5000  0.0000 -0.3239 -0.0000
                                           -0.7138  0.0000  0.3677 -0.0000 -0.0101
                                            0.0052  0.0115  0.0088  0.0044
                ( 60.71%)  -0.7791* H   5 s( 99.92%)p 0.00(  0.08%)
                                           -0.9996 -0.0007  0.0107  0.0235 -0.0121


 NHO Directionality and "Bond Bending" (deviations from line of nuclear centers)

         [Thresholds for printing:  angular deviation  >  1.0 degree]
                                    hybrid p-character > 25.0%
                                    orbital occupancy  >  0.10e

                                Line of Centers        Hybrid 1              Hybrid 2
                                ---------------  -------------------   ------------------
                NBO               Theta   Phi    Theta   Phi    Dev    Theta   Phi    Dev
 ========================================================================================
    None exceeding thresholds


 Second Order Perturbation Theory Analysis of Fock Matrix in NBO Basis

     Threshold for printing:   0.50 kcal/mol
                                                                              E(2)  E(j)-E(i) F(i,j)
         Donor NBO (i)                     Acceptor NBO (j)                 kcal/mol   a.u.    a.u. 
 ===================================================================================================

 within unit  1
   5. CR (   1) C   1                / 15. RY*(   1) H   2                    0.73   11.04    0.080
   5. CR (   1) C   1                / 19. RY*(   1) H   3                    0.73   11.04    0.080
   5. CR (   1) C   1                / 23. RY*(   1) H   4                    0.73   11.04    0.080
   5. CR (   1) C   1                / 27. RY*(   1) H   5                    0.73   11.04    0.080


 Natural Bond Orbitals (Summary):

                                                            Principal Delocalizations
           NBO                        Occupancy    Energy   (geminal,vicinal,remote)
 ====================================================================================
 Molecular unit  1  (CH4)
     1. BD (   1) C   1 - H   2          1.99898    -0.55759   
     2. BD (   1) C   1 - H   3          1.99898    -0.55773   
     3. BD (   1) C   1 - H   4          1.99897    -0.55751   
     4. BD (   1) C   1 - H   5          1.99898    -0.55760   
     5. CR (   1) C   1                  1.99944   -10.42640  19(v),15(v),27(v),23(v)
     6. RY*(   1) C   1                  0.00000     0.79246   
     7. RY*(   2) C   1                  0.00000     0.57097   
     8. RY*(   3) C   1                  0.00000     0.57097   
     9. RY*(   4) C   1                  0.00000     0.57095   
    10. RY*(   5) C   1                  0.00000     2.26327   
    11. RY*(   6) C   1                  0.00000     2.21443   
    12. RY*(   7) C   1                  0.00000     2.33293   
    13. RY*(   8) C   1                  0.00000     2.43877   
    14. RY*(   9) C   1                  0.00000     2.42691   
    15. RY*(   1) H   2                  0.00056     0.61662   
    16. RY*(   2) H   2                  0.00012     1.73503   
    17. RY*(   3) H   2                  0.00012     1.73458   
    18. RY*(   4) H   2                  0.00000     2.15161   
    19. RY*(   1) H   3                  0.00056     0.61749   
    20. RY*(   2) H   3                  0.00012     1.73499   
    21. RY*(   3) H   3                  0.00012     1.73472   
    22. RY*(   4) H   3                  0.00000     2.15076   
    23. RY*(   1) H   4                  0.00056     0.61584   
    24. RY*(   2) H   4                  0.00012     1.73495   
    25. RY*(   3) H   4                  0.00012     1.73467   
    26. RY*(   4) H   4                  0.00000     2.15251   
    27. RY*(   1) H   5                  0.00056     0.61667   
    28. RY*(   2) H   5                  0.00012     1.73504   
    29. RY*(   3) H   5                  0.00012     1.73458   
    30. RY*(   4) H   5                  0.00000     2.15155   
    31. BD*(   1) C   1 - H   2          0.00036     0.53361   
    32. BD*(   1) C   1 - H   3          0.00036     0.53376   
    33. BD*(   1) C   1 - H   4          0.00036     0.53361   
    34. BD*(   1) C   1 - H   5          0.00036     0.53361   
       -------------------------------
              Total Lewis    9.99534  ( 99.9534%)
        Valence non-Lewis    0.00143  (  0.0143%)
        Rydberg non-Lewis    0.00322  (  0.0322%)
       -------------------------------
            Total unit  1   10.00000  (100.0000%)
           Charge unit  1    0.00000
 Leave Link  607 at Sun May 29 19:28:57 2022, MaxMem=   262144000 cpu:               1.2 elap:               0.3
 (Enter /binaries/g16/l9999.exe)
 Unable to Open any file for archive entry.
 1\1\GINC-WEB\FOpt\RM062X\def2SVP\C1H4\CALCUS\29-May-2022\0\\#p opt M06
 2X/Def2SVP pop(nbo)\\File created by ccinput\\0,1\C,4.2918226767,3.658
 8291512,-0.0012715346\H,4.6575566511,2.6246742506,-0.0011000705\H,4.65
 85999974,4.1774951657,0.8928902785\H,4.6562188201,4.1741046073,-0.8984
 320265\H,3.1949018547,3.6588968252,-0.0010866469\\Version=ES64L-G16Rev
 C.01\State=1-A\HF=-40.4501459\RMSD=2.413e-09\RMSF=2.090e-04\Dipole=0.0
 000101,-0.0000047,-0.0003623\Quadrupole=0.0000334,-0.0002965,0.000263,
 -0.0002844,0.0012194,0.0017695\PG=C01 [X(C1H4)]\\@
 The archive entry for this job was punched.


 THOUGH I SPEAK WITH THE TONGUES OF MEN AND OF ANGELS, 
 AND HAVE NOT LOVE,
 I AM BECOME AS SOUNDING BRASS, A TINKLING CYMBAL.
 AND THOUGH I HAVE THE GIFT OF PROPHECY,
 AND UNDERSTAND ALL MYSTERIES, AND ALL KNOWLEDGE.
 AND THOUGH I HAVE ALL FAITH, SO THAT I COULD REMOVE MOUNTAINS,
 AND HAVE NOT LOVE, I AM NOTHING.
 AND THOUGH I BESTOW ALL MY GOODS TO FEED THE POOR,
 AND THOUGH I GIVE MY BODY TO BE BURNED,
 AND HAVE NOT LOVE IT PROFITETH ME NOTHING.
 LOVE SUFFERETH LONG, AND IS KIND,
 LOVE ENVIETH NOT,
 LOVE VAUNTETH NOT ITSELF, IS NOT PUFFED UP,
 DOTH NOT BEHAVE ITSELF UNSEEMLY, SEEKETH NOT HER OWN,
 IS NOT EASILY PROVOKED, THINKETH NO EVIL,
 REJOICETH NOT IN INIQUITY, BUT REJOICETH IN THE TRUTH,
 BEARETH ALL THINGS, BELIEVETH ALL THINGS,
 HOPETH ALL THINGS, ENDURETH ALL THINGS.
 LOVE NEVER FAILETH, BUT WHETHER THERE BE PROPHECIES, THEY SHALL FAIL, 
 WHETHER THERE BE TONGUES, THEY SHALL CEASE,
 WHETHER THERE BE KNOWLEDGE, IT SHALL VANISH AWAY.
 FOR WE KNOW IN PART, AND WE PROPHESY IN PART.
 BUT WHEN THAT WHICH IS PERFECT IS COME, THEN THAT WHICH IS IN PART 
 SHALL BE DONE AWAY. 
 WHEN I WAS A CHILD, I SPAKE AS A CHILD, I UNDERSTOOD AS A CHILD, 
 I THOUGHT AS A CHILD.
 BUT WHEN I BECAME A MAN, I PUT AWAY CHILDISH THINGS.
 FOR NOW WE SEE THROUGH A GLASS, DARKLY, BUT THEN FACE TO FACE.
 NOW I KNOW IN PART. BUT THEN SHALL I KNOW EVEN AS ALSO I AM KNOWN.
 AND NOW ABIDETH FAITH, HOPE AND LOVE, THESE THREE.
 BUT THE GREATEST OF THESE IS LOVE.

                     I CORINTHIANS 13
 Job cpu time:       0 days  0 hours  0 minutes 13.1 seconds.
 Elapsed time:       0 days  0 hours  0 minutes  3.3 seconds.
 File lengths (MBytes):  RWF=      6 Int=      0 D2E=      0 Chk=      1 Scr=      1
 Normal termination of Gaussian 16 at Sun May 29 19:28:57 2022.
