 Entering Gaussian System, Link 0=g16
 Input=calc.com
 Output=calc.log
 Initial command:
 /binaries/g16/l1.exe "/calcus/scratch/scr/137/Gau-43169.inp" -scrdir="/calcus/scratch/scr/137/"
 Entering Link 1 = /binaries/g16/l1.exe PID=     43171.
  
 Copyright (c) 1988-2019, Gaussian, Inc.  All Rights Reserved.
  
 This is part of the Gaussian(R) 16 program.  It is based on
 the Gaussian(R) 09 system (copyright 2009, Gaussian, Inc.),
 the Gaussian(R) 03 system (copyright 2003, Gaussian, Inc.),
 the Gaussian(R) 98 system (copyright 1998, Gaussian, Inc.),
 the Gaussian(R) 94 system (copyright 1995, Gaussian, Inc.),
 the Gaussian 92(TM) system (copyright 1992, Gaussian, Inc.),
 the Gaussian 90(TM) system (copyright 1990, Gaussian, Inc.),
 the Gaussian 88(TM) system (copyright 1988, Gaussian, Inc.),
 the Gaussian 86(TM) system (copyright 1986, Carnegie Mellon
 University), and the Gaussian 82(TM) system (copyright 1983,
 Carnegie Mellon University). Gaussian is a federally registered
 trademark of Gaussian, Inc.
  
 This software contains proprietary and confidential information,
 including trade secrets, belonging to Gaussian, Inc.
  
 This software is provided under written license and may be
 used, copied, transmitted, or stored only in accord with that
 written license.
  
 The following legend is applicable only to US Government
 contracts under FAR:
  
                    RESTRICTED RIGHTS LEGEND
  
 Use, reproduction and disclosure by the US Government is
 subject to restrictions as set forth in subparagraphs (a)
 and (c) of the Commercial Computer Software - Restricted
 Rights clause in FAR 52.227-19.
  
 Gaussian, Inc.
 340 Quinnipiac St., Bldg. 40, Wallingford CT 06492
  
  
 ---------------------------------------------------------------
 Warning -- This program may not be used in any manner that
 competes with the business of Gaussian, Inc. or will provide
 assistance to any competitor of Gaussian, Inc.  The licensee
 of this program is prohibited from giving any competitor of
 Gaussian, Inc. access to this program.  By using this program,
 the user acknowledges that Gaussian, Inc. is engaged in the
 business of creating and licensing software in the field of
 computational chemistry and represents and warrants to the
 licensee that it is not a competitor of Gaussian, Inc. and that
 it will not use this program in any manner prohibited above.
 ---------------------------------------------------------------
  

 Cite this work as:
 Gaussian 16, Revision C.01,
 M. J. Frisch, G. W. Trucks, H. B. Schlegel, G. E. Scuseria, 
 M. A. Robb, J. R. Cheeseman, G. Scalmani, V. Barone, 
 G. A. Petersson, H. Nakatsuji, X. Li, M. Caricato, A. V. Marenich, 
 J. Bloino, B. G. Janesko, R. Gomperts, B. Mennucci, H. P. Hratchian, 
 J. V. Ortiz, A. F. Izmaylov, J. L. Sonnenberg, D. Williams-Young, 
 F. Ding, F. Lipparini, F. Egidi, J. Goings, B. Peng, A. Petrone, 
 T. Henderson, D. Ranasinghe, V. G. Zakrzewski, J. Gao, N. Rega, 
 G. Zheng, W. Liang, M. Hada, M. Ehara, K. Toyota, R. Fukuda, 
 J. Hasegawa, M. Ishida, T. Nakajima, Y. Honda, O. Kitao, H. Nakai, 
 T. Vreven, K. Throssell, J. A. Montgomery, Jr., J. E. Peralta, 
 F. Ogliaro, M. J. Bearpark, J. J. Heyd, E. N. Brothers, K. N. Kudin, 
 V. N. Staroverov, T. A. Keith, R. Kobayashi, J. Normand, 
 K. Raghavachari, A. P. Rendell, J. C. Burant, S. S. Iyengar, 
 J. Tomasi, M. Cossi, J. M. Millam, M. Klene, C. Adamo, R. Cammi, 
 J. W. Ochterski, R. L. Martin, K. Morokuma, O. Farkas, 
 J. B. Foresman, and D. J. Fox, Gaussian, Inc., Wallingford CT, 2019.
 
 ******************************************
 Gaussian 16:  ES64L-G16RevC.01  3-Jul-2019
                29-May-2022 
 ******************************************
 %chk=in.chk
 %nproc=4
 Will use up to    4 processors via shared memory.
 %mem=2000MB
 -------------------------------------------
 #p opt(modredundant) M062X/Def2SVP pop(nbo)
 -------------------------------------------
 1/18=120,19=15,26=3,38=1/1,3;
 2/9=110,12=2,17=6,18=5,40=1/2;
 3/5=43,7=101,11=2,25=1,30=1,71=1,74=-55/1,2,3;
 4//1;
 5/5=2,38=5/2;
 6/7=2,8=2,9=2,10=2,28=1,40=1/1,7;
 7//1,2,3,16;
 1/18=20,19=15,26=3/3(2);
 2/9=110/2;
 99//99;
 2/9=110/2;
 3/5=43,7=101,11=2,25=1,30=1,71=1,74=-55/1,2,3;
 4/5=5,16=3,69=1/1;
 5/5=2,38=5/2;
 7//1,2,3,16;
 1/18=20,19=15,26=3/3(-5);
 2/9=110/2;
 6/7=2,8=2,9=2,10=2,19=2,28=1,40=1/1,7;
 99/9=1/99;
 Leave Link    1 at Sun May 29 14:24:53 2022, MaxMem=   262144000 cpu:               0.1 elap:               0.0
 (Enter /binaries/g16/l101.exe)
 -----------------------
 File created by ccinput
 -----------------------
 Symbolic Z-matrix:
 Charge =  0 Multiplicity = 1
 C                     4.2918    3.6588    0. 
 H                     4.6485    2.65      0. 
 H                     4.6485    4.1632    0.8707 
 H                     4.6485    4.1632   -0.8797 
 H                     3.2218    3.6588    0. 
 
 The following ModRedundant input section has been read:
 B       1       2 S  10 0.3900                                                
 
 ITRead=  0  0  0  0  0
 MicOpt= -1 -1 -1 -1 -1
 NAtoms=      5 NQM=        5 NQMF=       0 NMMI=      0 NMMIF=      0
                NMic=       0 NMicF=      0.
                    Isotopes and Nuclear Properties:
 (Nuclear quadrupole moments (NQMom) in fm**2, nuclear magnetic moments (NMagM)
  in nuclear magnetons)

  Atom         1           2           3           4           5
 IAtWgt=          12           1           1           1           1
 AtmWgt=  12.0000000   1.0078250   1.0078250   1.0078250   1.0078250
 NucSpn=           0           1           1           1           1
 AtZEff=  -0.0000000  -0.0000000  -0.0000000  -0.0000000  -0.0000000
 NQMom=    0.0000000   0.0000000   0.0000000   0.0000000   0.0000000
 NMagM=    0.0000000   2.7928460   2.7928460   2.7928460   2.7928460
 AtZNuc=   6.0000000   1.0000000   1.0000000   1.0000000   1.0000000
 Leave Link  101 at Sun May 29 14:24:53 2022, MaxMem=   262144000 cpu:               0.6 elap:               0.1
 (Enter /binaries/g16/l103.exe)

 GradGradGradGradGradGradGradGradGradGradGradGradGradGradGradGradGradGrad
 Berny optimization.
 Initialization pass.
                           ----------------------------
                           !    Initial Parameters    !
                           ! (Angstroms and Degrees)  !
 --------------------------                            --------------------------
 ! Name  Definition              Value          Derivative Info.                !
 --------------------------------------------------------------------------------
 ! R1    R(1,2)                  1.07           Scan                            !
 ! R2    R(1,3)                  1.0676         estimate D2E/DX2                !
 ! R3    R(1,4)                  1.075          estimate D2E/DX2                !
 ! R4    R(1,5)                  1.07           estimate D2E/DX2                !
 ! A1    A(2,1,3)              109.5151         estimate D2E/DX2                !
 ! A2    A(2,1,4)              109.3762         estimate D2E/DX2                !
 ! A3    A(2,1,5)              109.473          estimate D2E/DX2                !
 ! A4    A(3,1,4)              109.5644         estimate D2E/DX2                !
 ! A5    A(3,1,5)              109.5186         estimate D2E/DX2                !
 ! A6    A(4,1,5)              109.3798         estimate D2E/DX2                !
 ! D1    D(2,1,4,3)           -120.0525         estimate D2E/DX2                !
 ! D2    D(2,1,5,3)            120.0839         estimate D2E/DX2                !
 ! D3    D(2,1,5,4)           -119.829          estimate D2E/DX2                !
 ! D4    D(3,1,5,4)            120.0871         estimate D2E/DX2                !
 --------------------------------------------------------------------------------
 Trust Radius=3.00D-01 FncErr=1.00D-07 GrdErr=1.00D-06 EigMax=2.50D+02 EigMin=1.00D-04
 Number of optimizations in scan=  11
 Number of steps in this run=     24 maximum allowed number of steps=    100.
 GradGradGradGradGradGradGradGradGradGradGradGradGradGradGradGradGradGrad

 Leave Link  103 at Sun May 29 14:24:53 2022, MaxMem=   262144000 cpu:               0.0 elap:               0.0
 (Enter /binaries/g16/l202.exe)
                          Input orientation:                          
 ---------------------------------------------------------------------
 Center     Atomic      Atomic             Coordinates (Angstroms)
 Number     Number       Type             X           Y           Z
 ---------------------------------------------------------------------
      1          6           0        4.291800    3.658800    0.000000
      2          1           0        4.648500    2.650000    0.000000
      3          1           0        4.648500    4.163200    0.870700
      4          1           0        4.648500    4.163200   -0.879700
      5          1           0        3.221800    3.658800    0.000000
 ---------------------------------------------------------------------
                    Distance matrix (angstroms):
                    1          2          3          4          5
     1  C    0.000000
     2  H    1.070006   0.000000
     3  H    1.067601   1.745822   0.000000
     4  H    1.074954   1.750327   1.750400   0.000000
     5  H    1.070000   1.747327   1.745855   1.750361   0.000000
 Stoichiometry    CH4
 Framework group  C1[X(CH4)]
 Deg. of freedom     9
 Full point group                 C1      NOp   1
 Largest Abelian subgroup         C1      NOp   1
 Largest concise Abelian subgroup C1      NOp   1
                         Standard orientation:                         
 ---------------------------------------------------------------------
 Center     Atomic      Atomic             Coordinates (Angstroms)
 Number     Number       Type             X           Y           Z
 ---------------------------------------------------------------------
      1          6           0       -0.000767    0.000001    0.000472
      2          1           0       -0.325680   -0.869163   -0.532348
      3          1           0       -0.412253   -0.010991    0.985525
      4          1           0        1.072605    0.002075    0.058743
      5          1           0       -0.330072    0.878070   -0.514750
 ---------------------------------------------------------------------
 Rotational constants (GHZ):         164.4303219         163.9529333         163.7655362
 Leave Link  202 at Sun May 29 14:24:53 2022, MaxMem=   262144000 cpu:               0.0 elap:               0.0
 (Enter /binaries/g16/l301.exe)
 Standard basis: def2SVP (5D, 7F)
 Ernie: Thresh=  0.10000D-02 Tol=  0.10000D-05 Strict=F.
 There are    35 symmetry adapted cartesian basis functions of A   symmetry.
 There are    34 symmetry adapted basis functions of A   symmetry.
    34 basis functions,    53 primitive gaussians,    35 cartesian basis functions
     5 alpha electrons        5 beta electrons
       nuclear repulsion energy        13.6784087271 Hartrees.
 IExCor= 4336 DFT=T Ex+Corr=M062X ExCW=0 ScaHFX=  0.540000
 ScaDFX=  1.000000  1.000000  1.000000  1.000000 ScalE2=  1.000000  1.000000
 IRadAn=      5 IRanWt=     -1 IRanGd=            0 ICorTp=0 IEmpDi=  4
 NAtoms=    5 NActive=    5 NUniq=    5 SFac= 1.00D+00 NAtFMM=   60 NAOKFM=F Big=F
 Integral buffers will be    131072 words long.
 Raffenetti 2 integral format.
 Two-electron integral symmetry is turned on.
 Leave Link  301 at Sun May 29 14:24:53 2022, MaxMem=   262144000 cpu:               0.1 elap:               0.0
 (Enter /binaries/g16/l302.exe)
 NPDir=0 NMtPBC=     1 NCelOv=     1 NCel=       1 NClECP=     1 NCelD=      1
         NCelK=      1 NCelE2=     1 NClLst=     1 CellRange=     0.0.
 One-electron integrals computed using PRISM.
 One-electron integral symmetry used in STVInt
   1 Symmetry operations used in ECPInt.
 ECPInt:  NShTT=     171 NPrTT=     553 LenC2=     172 LenP2D=     543.
 LDataN:  DoStor=T MaxTD1= 4 Len=   56
 NBasis=    34 RedAO= T EigKep=  1.32D-02  NBF=    34
 NBsUse=    34 1.00D-06 EigRej= -1.00D+00 NBFU=    34
 Precomputing XC quadrature grid using
 IXCGrd= 4 IRadAn=           5 IRanWt=          -1 IRanGd=           0 AccXCQ= 0.00D+00.
 Generated NRdTot=       0 NPtTot=           0 NUsed=           0 NTot=          32
 NSgBfM=    35    35    35    35    35 MxSgAt=     5 MxSgA2=     5.
 Leave Link  302 at Sun May 29 14:24:53 2022, MaxMem=   262144000 cpu:               0.3 elap:               0.1
 (Enter /binaries/g16/l303.exe)
 DipDrv:  MaxL=1.
 Leave Link  303 at Sun May 29 14:24:53 2022, MaxMem=   262144000 cpu:               0.1 elap:               0.0
 (Enter /binaries/g16/l401.exe)
 ExpMin= 1.22D-01 ExpMax= 1.24D+03 ExpMxC= 1.86D+02 IAcc=3 IRadAn=         5 AccDes= 0.00D+00
 Harris functional with IExCor= 1009 and IRadAn=       5 diagonalized for initial guess.
 HarFok:  IExCor= 1009 AccDes= 0.00D+00 IRadAn=         5 IDoV= 1 UseB2=F ITyADJ=14
 ICtDFT=  3500011 ScaDFX=  1.000000  1.000000  1.000000  1.000000
 FoFCou: FMM=F IPFlag=           0 FMFlag=      100000 FMFlg1=           0
         NFxFlg=           0 DoJE=T BraDBF=F KetDBF=T FulRan=T
         wScrn=  0.000000 ICntrl=       500 IOpCl=  0 I1Cent=   200000004 NGrid=           0
         NMat0=    1 NMatS0=      1 NMatT0=    0 NMatD0=    1 NMtDS0=    0 NMtDT0=    0
 Petite list used in FoFCou.
 Harris En= -40.4890225627125    
 JPrj=0 DoOrth=F DoCkMO=F.
 Leave Link  401 at Sun May 29 14:24:53 2022, MaxMem=   262144000 cpu:               0.5 elap:               0.1
 (Enter /binaries/g16/l502.exe)
 Keep R1 ints in memory in canonical form, NReq=3636988.
 FoFCou: FMM=F IPFlag=           0 FMFlag=           0 FMFlg1=           0
         NFxFlg=           0 DoJE=F BraDBF=F KetDBF=F FulRan=T
         wScrn=  0.000000 ICntrl=       600 IOpCl=  0 I1Cent=           0 NGrid=           0
         NMat0=    1 NMatS0=    595 NMatT0=    0 NMatD0=    1 NMtDS0=    0 NMtDT0=    0
 Symmetry not used in FoFCou.
 Two-electron integral symmetry not used.
 Closed shell SCF:
 Using DIIS extrapolation, IDIIS=  1040.
 NGot=   262144000 LenX=   261963332 LenY=   261961666
 Requested convergence on RMS density matrix=1.00D-08 within 128 cycles.
 Requested convergence on MAX density matrix=1.00D-06.
 Requested convergence on             energy=1.00D-06.
 No special actions if energy rises.
 Integral accuracy reduced to 1.0D-05 until final iterations.

 Cycle   1  Pass 0  IDiag  1:
 E= -40.3595509037504    
 DIIS: error= 5.28D-02 at cycle   1 NSaved=   1.
 NSaved= 1 IEnMin= 1 EnMin= -40.3595509037504     IErMin= 1 ErrMin= 5.28D-02
 ErrMax= 5.28D-02  0.00D+00 EMaxC= 1.00D-01 BMatC= 8.11D-02 BMatP= 8.11D-02
 IDIUse=3 WtCom= 4.72D-01 WtEn= 5.28D-01
 Coeff-Com:  0.100D+01
 Coeff-En:   0.100D+01
 Coeff:      0.100D+01
 Gap=     0.490 Goal=   None    Shift=    0.000
 GapD=    0.490 DampG=2.000 DampE=0.500 DampFc=1.0000 IDamp=-1.
 RMSDP=1.25D-02 MaxDP=1.57D-01              OVMax= 1.61D-01

 Cycle   2  Pass 0  IDiag  1:
 E= -40.3946308520984     Delta-E=       -0.035079948348 Rises=F Damp=F
 DIIS: error= 4.21D-02 at cycle   2 NSaved=   2.
 NSaved= 2 IEnMin= 2 EnMin= -40.3946308520984     IErMin= 2 ErrMin= 4.21D-02
 ErrMax= 4.21D-02  0.00D+00 EMaxC= 1.00D-01 BMatC= 5.00D-02 BMatP= 8.11D-02
 IDIUse=3 WtCom= 5.79D-01 WtEn= 4.21D-01
 Coeff-Com:  0.439D+00 0.561D+00
 Coeff-En:   0.356D+00 0.644D+00
 Coeff:      0.404D+00 0.596D+00
 Gap=     0.575 Goal=   None    Shift=    0.000
 RMSDP=5.71D-03 MaxDP=7.28D-02 DE=-3.51D-02 OVMax= 7.36D-02

 Cycle   3  Pass 0  IDiag  1:
 E= -40.4480918959379     Delta-E=       -0.053461043840 Rises=F Damp=F
 DIIS: error= 3.05D-03 at cycle   3 NSaved=   3.
 NSaved= 3 IEnMin= 3 EnMin= -40.4480918959379     IErMin= 3 ErrMin= 3.05D-03
 ErrMax= 3.05D-03  0.00D+00 EMaxC= 1.00D-01 BMatC= 2.53D-04 BMatP= 5.00D-02
 IDIUse=3 WtCom= 9.69D-01 WtEn= 3.05D-02
 Coeff-Com: -0.239D-01 0.398D-01 0.984D+00
 Coeff-En:   0.000D+00 0.000D+00 0.100D+01
 Coeff:     -0.232D-01 0.386D-01 0.985D+00
 Gap=     0.576 Goal=   None    Shift=    0.000
 RMSDP=3.53D-04 MaxDP=4.76D-03 DE=-5.35D-02 OVMax= 4.85D-03

 Cycle   4  Pass 0  IDiag  1:
 E= -40.4483579462622     Delta-E=       -0.000266050324 Rises=F Damp=F
 DIIS: error= 6.21D-05 at cycle   4 NSaved=   4.
 NSaved= 4 IEnMin= 4 EnMin= -40.4483579462622     IErMin= 4 ErrMin= 6.21D-05
 ErrMax= 6.21D-05  0.00D+00 EMaxC= 1.00D-01 BMatC= 6.31D-08 BMatP= 2.53D-04
 IDIUse=1 WtCom= 1.00D+00 WtEn= 0.00D+00
 Coeff-Com:  0.276D-02-0.583D-02-0.120D+00 0.112D+01
 Coeff:      0.276D-02-0.583D-02-0.120D+00 0.112D+01
 Gap=     0.576 Goal=   None    Shift=    0.000
 RMSDP=2.33D-05 MaxDP=1.45D-04 DE=-2.66D-04 OVMax= 1.23D-04

 Cycle   5  Pass 0  IDiag  1:
 E= -40.4483580396268     Delta-E=       -0.000000093365 Rises=F Damp=F
 DIIS: error= 5.94D-06 at cycle   5 NSaved=   5.
 NSaved= 5 IEnMin= 5 EnMin= -40.4483580396268     IErMin= 5 ErrMin= 5.94D-06
 ErrMax= 5.94D-06  0.00D+00 EMaxC= 1.00D-01 BMatC= 5.88D-10 BMatP= 6.31D-08
 IDIUse=1 WtCom= 1.00D+00 WtEn= 0.00D+00
 Coeff-Com:  0.110D-03-0.300D-03-0.444D-02 0.529D-01 0.952D+00
 Coeff:      0.110D-03-0.300D-03-0.444D-02 0.529D-01 0.952D+00
 Gap=     0.576 Goal=   None    Shift=    0.000
 RMSDP=8.78D-07 MaxDP=5.77D-06 DE=-9.34D-08 OVMax= 1.18D-05

 Initial convergence to 1.0D-05 achieved.  Increase integral accuracy.
 Cycle   6  Pass 1  IDiag  1:
 E= -40.4483600510494     Delta-E=       -0.000002011423 Rises=F Damp=F
 DIIS: error= 1.53D-05 at cycle   1 NSaved=   1.
 NSaved= 1 IEnMin= 1 EnMin= -40.4483600510494     IErMin= 1 ErrMin= 1.53D-05
 ErrMax= 1.53D-05  0.00D+00 EMaxC= 1.00D-01 BMatC= 1.20D-08 BMatP= 1.20D-08
 IDIUse=1 WtCom= 1.00D+00 WtEn= 0.00D+00
 Coeff-Com:  0.100D+01
 Coeff:      0.100D+01
 Gap=     0.576 Goal=   None    Shift=    0.000
 RMSDP=8.78D-07 MaxDP=5.77D-06 DE=-2.01D-06 OVMax= 3.88D-05

 Cycle   7  Pass 1  IDiag  1:
 E= -40.4483600631879     Delta-E=       -0.000000012138 Rises=F Damp=F
 DIIS: error= 1.66D-06 at cycle   2 NSaved=   2.
 NSaved= 2 IEnMin= 2 EnMin= -40.4483600631879     IErMin= 2 ErrMin= 1.66D-06
 ErrMax= 1.66D-06  0.00D+00 EMaxC= 1.00D-01 BMatC= 1.19D-10 BMatP= 1.20D-08
 IDIUse=1 WtCom= 1.00D+00 WtEn= 0.00D+00
 Coeff-Com: -0.330D-01 0.103D+01
 Coeff:     -0.330D-01 0.103D+01
 Gap=     0.576 Goal=   None    Shift=    0.000
 RMSDP=4.71D-07 MaxDP=3.77D-06 DE=-1.21D-08 OVMax= 5.07D-06

 Cycle   8  Pass 1  IDiag  1:
 E= -40.4483600633224     Delta-E=       -0.000000000135 Rises=F Damp=F
 DIIS: error= 7.02D-07 at cycle   3 NSaved=   3.
 NSaved= 3 IEnMin= 3 EnMin= -40.4483600633224     IErMin= 3 ErrMin= 7.02D-07
 ErrMax= 7.02D-07  0.00D+00 EMaxC= 1.00D-01 BMatC= 1.42D-11 BMatP= 1.19D-10
 IDIUse=1 WtCom= 1.00D+00 WtEn= 0.00D+00
 Coeff-Com: -0.156D-01 0.213D+00 0.803D+00
 Coeff:     -0.156D-01 0.213D+00 0.803D+00
 Gap=     0.576 Goal=   None    Shift=    0.000
 RMSDP=1.23D-07 MaxDP=1.53D-06 DE=-1.35D-10 OVMax= 1.96D-06

 Cycle   9  Pass 1  IDiag  1:
 E= -40.4483600633358     Delta-E=       -0.000000000013 Rises=F Damp=F
 DIIS: error= 2.81D-07 at cycle   4 NSaved=   4.
 NSaved= 4 IEnMin= 4 EnMin= -40.4483600633358     IErMin= 4 ErrMin= 2.81D-07
 ErrMax= 2.81D-07  0.00D+00 EMaxC= 1.00D-01 BMatC= 1.98D-12 BMatP= 1.42D-11
 IDIUse=1 WtCom= 1.00D+00 WtEn= 0.00D+00
 Coeff-Com: -0.277D-02 0.507D-02 0.266D+00 0.731D+00
 Coeff:     -0.277D-02 0.507D-02 0.266D+00 0.731D+00
 Gap=     0.576 Goal=   None    Shift=    0.000
 RMSDP=3.90D-08 MaxDP=4.77D-07 DE=-1.34D-11 OVMax= 6.01D-07

 Cycle  10  Pass 1  IDiag  1:
 E= -40.4483600633380     Delta-E=       -0.000000000002 Rises=F Damp=F
 DIIS: error= 3.41D-08 at cycle   5 NSaved=   5.
 NSaved= 5 IEnMin= 5 EnMin= -40.4483600633380     IErMin= 5 ErrMin= 3.41D-08
 ErrMax= 3.41D-08  0.00D+00 EMaxC= 1.00D-01 BMatC= 4.49D-14 BMatP= 1.98D-12
 IDIUse=1 WtCom= 1.00D+00 WtEn= 0.00D+00
 Coeff-Com:  0.264D-03-0.109D-01 0.584D-03 0.119D+00 0.891D+00
 Coeff:      0.264D-03-0.109D-01 0.584D-03 0.119D+00 0.891D+00
 Gap=     0.576 Goal=   None    Shift=    0.000
 RMSDP=7.89D-09 MaxDP=5.54D-08 DE=-2.18D-12 OVMax= 1.20D-07

 SCF Done:  E(RM062X) =  -40.4483600633     A.U. after   10 cycles
            NFock= 10  Conv=0.79D-08     -V/T= 2.0116
 KE= 3.998608219545D+01 PE=-1.201814881777D+02 EE= 2.606863719185D+01
 Leave Link  502 at Sun May 29 14:24:54 2022, MaxMem=   262144000 cpu:               2.6 elap:               0.7
 (Enter /binaries/g16/l601.exe)
 Copying SCF densities to generalized density rwf, IOpCl= 0 IROHF=0.

 **********************************************************************

            Population analysis using the SCF Density.

 **********************************************************************

 Orbital symmetries:
       Occupied  (A) (A) (A) (A) (A)
       Virtual   (A) (A) (A) (A) (A) (A) (A) (A) (A) (A) (A) (A)
                 (A) (A) (A) (A) (A) (A) (A) (A) (A) (A) (A) (A)
                 (A) (A) (A) (A) (A)
 The electronic state is 1-A.
 Alpha  occ. eigenvalues --  -10.52652  -0.78078  -0.45735  -0.45678  -0.45573
 Alpha virt. eigenvalues --    0.11978   0.19269   0.19339   0.19369   0.46522
 Alpha virt. eigenvalues --    0.46541   0.46578   0.72598   0.75644   0.75852
 Alpha virt. eigenvalues --    0.75954   0.85111   1.15610   1.15652   1.60335
 Alpha virt. eigenvalues --    1.60340   1.60471   1.83696   1.84044   1.84142
 Alpha virt. eigenvalues --    2.19177   2.19222   2.19422   2.58882   2.58930
 Alpha virt. eigenvalues --    2.67783   2.96644   2.97211   2.97482
          Condensed to atoms (all electrons):
               1          2          3          4          5
     1  C    4.534894   0.411175   0.411571   0.410580   0.411179
     2  H    0.411175   0.603658  -0.019804  -0.019907  -0.019804
     3  H    0.411571  -0.019804   0.603372  -0.019783  -0.019803
     4  H    0.410580  -0.019907  -0.019783   0.603433  -0.019905
     5  H    0.411179  -0.019804  -0.019803  -0.019905   0.603645
 Mulliken charges:
               1
     1  C   -0.179399
     2  H    0.044682
     3  H    0.044446
     4  H    0.045582
     5  H    0.044688
 Sum of Mulliken charges =  -0.00000
 Mulliken charges with hydrogens summed into heavy atoms:
               1
     1  C   -0.000000
 Electronic spatial extent (au):  <R**2>=             34.7146
 Charge=              0.0000 electrons
 Dipole moment (field-independent basis, Debye):
    X=             -0.0022    Y=             -0.0000    Z=             -0.0002  Tot=              0.0022
 Quadrupole moment (field-independent basis, Debye-Ang):
   XX=             -8.2221   YY=             -8.2238   ZZ=             -8.2232
   XY=             -0.0000   XZ=             -0.0031   YZ=             -0.0001
 Traceless Quadrupole moment (field-independent basis, Debye-Ang):
   XX=              0.0009   YY=             -0.0008   ZZ=             -0.0002
   XY=             -0.0000   XZ=             -0.0031   YZ=             -0.0001
 Octapole moment (field-independent basis, Debye-Ang**2):
  XXX=              0.6699  YYY=              0.0127  ZZZ=              0.4262  XYY=             -0.3205
  XXY=              0.0025  XXZ=              0.0785  XZZ=             -0.3690  YZZ=             -0.0153
  YYZ=             -0.5004  XYZ=              0.0020
 Hexadecapole moment (field-independent basis, Debye-Ang**3):
 XXXX=            -14.5876 YYYY=            -14.7495 ZZZZ=            -14.7950 XXXY=              0.0020
 XXXZ=              0.0377 YYYX=             -0.0107 YYYZ=              0.0010 ZZZX=             -0.3411
 ZZZY=              0.0008 XXYY=             -5.1795 XXZZ=             -5.1025 YYZZ=             -4.8769
 XXYZ=             -0.0021 YYXZ=              0.2894 ZZXY=              0.0087
 N-N= 1.367840872710D+01 E-N=-1.201814890313D+02  KE= 3.998608219545D+01
 No NMR shielding tensors so no spin-rotation constants.
 Leave Link  601 at Sun May 29 14:24:54 2022, MaxMem=   262144000 cpu:               0.2 elap:               0.1
 (Enter /binaries/g16/l607.exe)
 ******************************Gaussian NBO Version 3.1******************************
             N A T U R A L   A T O M I C   O R B I T A L   A N D
          N A T U R A L   B O N D   O R B I T A L   A N A L Y S I S
 ******************************Gaussian NBO Version 3.1******************************
       /RESON  / : Allow strongly delocalized NBO set

 Analyzing the SCF density

 Job title: File created by ccinput                                         

 Storage needed:      3658 in NPA,      4765 in NBO ( 262143825 available)
 GSVD:  LWork=         442 too small for GESVD, short by         986 words or         986 for optimal perf.


 NATURAL POPULATIONS:  Natural atomic orbital occupancies 
                                                          
   NAO  Atom  No  lang   Type(AO)    Occupancy      Energy
 ----------------------------------------------------------
     1    C    1  S      Cor( 1S)     1.99942     -10.40830
     2    C    1  S      Val( 2S)     1.14549      -0.24115
     3    C    1  S      Ryd( 3S)     0.00000       0.79989
     4    C    1  px     Val( 2p)     1.22744      -0.07239
     5    C    1  px     Ryd( 3p)     0.00000       0.56906
     6    C    1  py     Val( 2p)     1.22741      -0.07126
     7    C    1  py     Ryd( 3p)     0.00000       0.56876
     8    C    1  pz     Val( 2p)     1.22738      -0.07073
     9    C    1  pz     Ryd( 3p)     0.00000       0.56863
    10    C    1  dxy    Ryd( 3d)     0.00017       2.25012
    11    C    1  dxz    Ryd( 3d)     0.00024       2.29315
    12    C    1  dyz    Ryd( 3d)     0.00043       2.41799
    13    C    1  dx2y2  Ryd( 3d)     0.00056       2.49702
    14    C    1  dz2    Ryd( 3d)     0.00040       2.39768

    15    H    2  S      Val( 1S)     0.79140       0.10731
    16    H    2  S      Ryd( 2S)     0.00049       0.36848
    17    H    2  px     Ryd( 2p)     0.00018       1.81773
    18    H    2  py     Ryd( 2p)     0.00051       2.22061
    19    H    2  pz     Ryd( 2p)     0.00027       1.92868

    20    H    3  S      Val( 1S)     0.79176       0.10877
    21    H    3  S      Ryd( 2S)     0.00049       0.36728
    22    H    3  px     Ryd( 2p)     0.00021       1.85974
    23    H    3  py     Ryd( 2p)     0.00013       1.75414
    24    H    3  pz     Ryd( 2p)     0.00063       2.36123

    25    H    4  S      Val( 1S)     0.79069       0.10435
    26    H    4  S      Ryd( 2S)     0.00048       0.37072
    27    H    4  px     Ryd( 2p)     0.00071       2.44879
    28    H    4  py     Ryd( 2p)     0.00013       1.74954
    29    H    4  pz     Ryd( 2p)     0.00013       1.75222

    30    H    5  S      Val( 1S)     0.79140       0.10732
    31    H    5  S      Ryd( 2S)     0.00049       0.36847
    32    H    5  px     Ryd( 2p)     0.00018       1.81952
    33    H    5  py     Ryd( 2p)     0.00052       2.23026
    34    H    5  pz     Ryd( 2p)     0.00026       1.91726


 Summary of Natural Population Analysis:                  
                                                          
                                       Natural Population 
                Natural  -----------------------------------------------
    Atom  No    Charge         Core      Valence    Rydberg      Total
 -----------------------------------------------------------------------
      C    1   -0.82894      1.99942     4.82771    0.00180     6.82894
      H    2    0.20714      0.00000     0.79140    0.00146     0.79286
      H    3    0.20679      0.00000     0.79176    0.00146     0.79321
      H    4    0.20787      0.00000     0.79069    0.00145     0.79213
      H    5    0.20714      0.00000     0.79140    0.00146     0.79286
 =======================================================================
   * Total *   -0.00000      1.99942     7.99295    0.00762    10.00000

                                 Natural Population      
 --------------------------------------------------------
   Core                       1.99942 ( 99.9712% of   2)
   Valence                    7.99295 ( 99.9119% of   8)
   Natural Minimal Basis      9.99238 ( 99.9238% of  10)
   Natural Rydberg Basis      0.00762 (  0.0762% of  10)
 --------------------------------------------------------

    Atom  No          Natural Electron Configuration
 ----------------------------------------------------------------------------
      C    1      [core]2S( 1.15)2p( 3.68)
      H    2            1S( 0.79)
      H    3            1S( 0.79)
      H    4            1S( 0.79)
      H    5            1S( 0.79)


 NATURAL BOND ORBITAL ANALYSIS:

                       Occupancies       Lewis Structure    Low   High
           Occ.    -------------------  -----------------   occ   occ
  Cycle   Thresh.   Lewis   Non-Lewis     CR  BD  3C  LP    (L)   (NL)   Dev
 =============================================================================
   1(1)    1.90     9.99417   0.00583      1   4   0   0     0      0    0.00
 -----------------------------------------------------------------------------

 Structure accepted: No low occupancy Lewis orbitals

 --------------------------------------------------------
   Core                      1.99942 ( 99.971% of   2)
   Valence Lewis             7.99475 ( 99.934% of   8)
  ==================       ============================
   Total Lewis               9.99417 ( 99.942% of  10)
  -----------------------------------------------------
   Valence non-Lewis         0.00262 (  0.026% of  10)
   Rydberg non-Lewis         0.00321 (  0.032% of  10)
  ==================       ============================
   Total non-Lewis           0.00583 (  0.058% of  10)
 --------------------------------------------------------


       (Occupancy)   Bond orbital/ Coefficients/ Hybrids
 ---------------------------------------------------------------------------------
     1. (1.99868) BD ( 1) C   1 - H   2  
                ( 60.39%)   0.7771* C   1 s( 25.01%)p 3.00( 74.96%)d 0.00(  0.04%)
                                            0.0001  0.5001  0.0000 -0.2629 -0.0000
                                           -0.7033 -0.0001 -0.4311 -0.0000  0.0082
                                            0.0050  0.0134 -0.0094 -0.0025
                ( 39.61%)   0.6294* H   2 s( 99.92%)p 0.00(  0.08%)
                                            0.9996  0.0009  0.0086  0.0231  0.0141
     2. (1.99868) BD ( 1) C   1 - H   3  
                ( 60.37%)   0.7770* C   1 s( 25.12%)p 2.98( 74.84%)d 0.00(  0.04%)
                                            0.0001  0.5012  0.0002 -0.3327 -0.0003
                                           -0.0089 -0.0000  0.7985  0.0006  0.0001
                                           -0.0119 -0.0003  0.0025  0.0149
                ( 39.63%)   0.6295* H   3 s( 99.92%)p 0.00(  0.08%)
                                            0.9996  0.0009  0.0109  0.0003 -0.0262
     3. (1.99870) BD ( 1) C   1 - H   4  
                ( 60.43%)   0.7773* C   1 s( 24.86%)p 3.02( 75.10%)d 0.00(  0.04%)
                                            0.0001  0.4986 -0.0003  0.8653 -0.0008
                                            0.0017 -0.0000  0.0477 -0.0001  0.0001
                                            0.0018  0.0000  0.0164 -0.0094
                ( 39.57%)   0.6291* H   4 s( 99.92%)p 0.00(  0.08%)
                                            0.9996  0.0009 -0.0283 -0.0001 -0.0015
     4. (1.99868) BD ( 1) C   1 - H   5  
                ( 60.39%)   0.7771* C   1 s( 25.01%)p 3.00( 74.96%)d 0.00(  0.04%)
                                            0.0001  0.5001  0.0000 -0.2664 -0.0001
                                            0.7105  0.0001 -0.4169 -0.0000 -0.0084
                                            0.0049 -0.0131 -0.0096 -0.0029
                ( 39.61%)   0.6294* H   5 s( 99.92%)p 0.00(  0.08%)
                                            0.9996  0.0009  0.0087 -0.0233  0.0137
     5. (1.99942) CR ( 1) C   1           s(100.00%)
                                            1.0000 -0.0003  0.0000 -0.0000  0.0000
                                            0.0000  0.0000  0.0000 -0.0000 -0.0000
                                            0.0000 -0.0000  0.0000  0.0000
     6. (0.00000) RY*( 1) C   1           s(100.00%)p 0.00(  0.00%)
     7. (0.00000) RY*( 2) C   1           s(  0.00%)p 1.00(100.00%)
     8. (0.00000) RY*( 3) C   1           s(  0.00%)p 1.00(100.00%)
     9. (0.00000) RY*( 4) C   1           s(  0.00%)p 1.00(100.00%)
    10. (0.00000) RY*( 5) C   1           s(  0.00%)p 1.00(  0.01%)d99.99( 99.99%)
    11. (0.00000) RY*( 6) C   1           s(  0.00%)p 1.00(  0.02%)d99.99( 99.98%)
    12. (0.00000) RY*( 7) C   1           s(  0.00%)p 1.00(  0.04%)d99.99( 99.96%)
    13. (0.00000) RY*( 8) C   1           s(  0.00%)p 1.00(  0.05%)d99.99( 99.95%)
    14. (0.00000) RY*( 9) C   1           s(  0.00%)p 1.00(  0.03%)d99.99( 99.97%)
    15. (0.00055) RY*( 1) H   2           s( 89.21%)p 0.12( 10.79%)
                                            0.0085  0.9444 -0.1020 -0.2664 -0.1630
    16. (0.00013) RY*( 2) H   2           s(  0.00%)p 1.00(100.00%)
                                            0.0002 -0.0002  0.9504 -0.2659 -0.1614
    17. (0.00013) RY*( 3) H   2           s(  0.00%)p 1.00(100.00%)
                                           -0.0001  0.0004 -0.0007 -0.5207  0.8538
    18. (0.00000) RY*( 4) H   2           s( 10.88%)p 8.20( 89.12%)
    19. (0.00055) RY*( 1) H   3           s( 89.16%)p 0.12( 10.84%)
                                            0.0085  0.9442 -0.1254 -0.0033  0.3044
    20. (0.00013) RY*( 2) H   3           s(  0.00%)p 1.00(100.00%)
                                           -0.0001  0.0022 -0.9222  0.0000 -0.3868
    21. (0.00013) RY*( 3) H   3           s(  0.00%)p 1.00(100.00%)
                                           -0.0000 -0.0000 -0.0039  0.9999  0.0094
    22. (0.00000) RY*( 4) H   3           s( 10.92%)p 8.16( 89.08%)
    23. (0.00054) RY*( 1) H   4           s( 89.13%)p 0.12( 10.87%)
                                            0.0085  0.9440  0.3290  0.0007  0.0220
    24. (0.00013) RY*( 2) H   4           s(  0.00%)p 1.00(100.00%)
                                           -0.0000 -0.0000 -0.0020  1.0000 -0.0001
    25. (0.00013) RY*( 3) H   4           s(  0.00%)p 1.00(100.00%)
                                            0.0002  0.0018  0.0617 -0.0000 -0.9981
    26. (0.00000) RY*( 4) H   4           s( 10.95%)p 8.13( 89.05%)
    27. (0.00055) RY*( 1) H   5           s( 89.20%)p 0.12( 10.80%)
                                            0.0085  0.9444 -0.1033  0.2692 -0.1576
    28. (0.00013) RY*( 2) H   5           s(  0.00%)p 1.00(100.00%)
                                           -0.0002  0.0002 -0.9491 -0.2724  0.1583
    29. (0.00013) RY*( 3) H   5           s(  0.00%)p 1.00(100.00%)
                                           -0.0001  0.0004 -0.0007  0.5040  0.8637
    30. (0.00000) RY*( 4) H   5           s( 10.88%)p 8.19( 89.12%)
    31. (0.00066) BD*( 1) C   1 - H   2  
                ( 39.61%)   0.6294* C   1 s( 25.01%)p 3.00( 74.96%)d 0.00(  0.04%)
                                           -0.0001 -0.5001 -0.0000  0.2629  0.0000
                                            0.7033  0.0001  0.4311  0.0000 -0.0082
                                           -0.0050 -0.0134  0.0094  0.0025
                ( 60.39%)  -0.7771* H   2 s( 99.92%)p 0.00(  0.08%)
                                           -0.9996 -0.0009 -0.0086 -0.0231 -0.0141
    32. (0.00066) BD*( 1) C   1 - H   3  
                ( 39.63%)   0.6295* C   1 s( 25.12%)p 2.98( 74.84%)d 0.00(  0.04%)
                                           -0.0001 -0.5012 -0.0002  0.3327  0.0003
                                            0.0089  0.0000 -0.7985 -0.0006 -0.0001
                                            0.0119  0.0003 -0.0025 -0.0149
                ( 60.37%)  -0.7770* H   3 s( 99.92%)p 0.00(  0.08%)
                                           -0.9996 -0.0009 -0.0109 -0.0003  0.0262
    33. (0.00064) BD*( 1) C   1 - H   4  
                ( 39.57%)   0.6291* C   1 s( 24.86%)p 3.02( 75.10%)d 0.00(  0.04%)
                                           -0.0001 -0.4986  0.0003 -0.8653  0.0008
                                           -0.0017  0.0000 -0.0477  0.0001 -0.0001
                                           -0.0018 -0.0000 -0.0164  0.0094
                ( 60.43%)  -0.7773* H   4 s( 99.92%)p 0.00(  0.08%)
                                           -0.9996 -0.0009  0.0283  0.0001  0.0015
    34. (0.00066) BD*( 1) C   1 - H   5  
                ( 39.61%)   0.6294* C   1 s( 25.01%)p 3.00( 74.96%)d 0.00(  0.04%)
                                           -0.0001 -0.5001 -0.0000  0.2664  0.0001
                                           -0.7105 -0.0001  0.4169  0.0000  0.0084
                                           -0.0049  0.0131  0.0096  0.0029
                ( 60.39%)  -0.7771* H   5 s( 99.92%)p 0.00(  0.08%)
                                           -0.9996 -0.0009 -0.0087  0.0233 -0.0137


 NHO Directionality and "Bond Bending" (deviations from line of nuclear centers)

         [Thresholds for printing:  angular deviation  >  1.0 degree]
                                    hybrid p-character > 25.0%
                                    orbital occupancy  >  0.10e

                                Line of Centers        Hybrid 1              Hybrid 2
                                ---------------  -------------------   ------------------
                NBO               Theta   Phi    Theta   Phi    Dev    Theta   Phi    Dev
 ========================================================================================
    None exceeding thresholds


 Second Order Perturbation Theory Analysis of Fock Matrix in NBO Basis

     Threshold for printing:   0.50 kcal/mol
                                                                              E(2)  E(j)-E(i) F(i,j)
         Donor NBO (i)                     Acceptor NBO (j)                 kcal/mol   a.u.    a.u. 
 ===================================================================================================

 within unit  1
   5. CR (   1) C   1                / 15. RY*(   1) H   2                    0.74   11.08    0.081
   5. CR (   1) C   1                / 19. RY*(   1) H   3                    0.75   11.08    0.081
   5. CR (   1) C   1                / 23. RY*(   1) H   4                    0.74   11.08    0.081
   5. CR (   1) C   1                / 27. RY*(   1) H   5                    0.74   11.08    0.081


 Natural Bond Orbitals (Summary):

                                                            Principal Delocalizations
           NBO                        Occupancy    Energy   (geminal,vicinal,remote)
 ====================================================================================
 Molecular unit  1  (CH4)
     1. BD (   1) C   1 - H   2          1.99868    -0.56575   
     2. BD (   1) C   1 - H   3          1.99868    -0.56700   
     3. BD (   1) C   1 - H   4          1.99870    -0.56356   
     4. BD (   1) C   1 - H   5          1.99868    -0.56576   
     5. CR (   1) C   1                  1.99942   -10.40787  19(v),15(v),27(v),23(v)
     6. RY*(   1) C   1                  0.00000     0.79989   
     7. RY*(   2) C   1                  0.00000     0.56916   
     8. RY*(   3) C   1                  0.00000     0.56874   
     9. RY*(   4) C   1                  0.00000     0.56855   
    10. RY*(   5) C   1                  0.00000     2.24860   
    11. RY*(   6) C   1                  0.00000     2.29102   
    12. RY*(   7) C   1                  0.00000     2.41426   
    13. RY*(   8) C   1                  0.00000     2.49215   
    14. RY*(   9) C   1                  0.00000     2.39422   
    15. RY*(   1) H   2                  0.00055     0.66734   
    16. RY*(   2) H   2                  0.00013     1.75235   
    17. RY*(   3) H   2                  0.00013     1.75282   
    18. RY*(   4) H   2                  0.00000     2.15543   
    19. RY*(   1) H   3                  0.00055     0.66816   
    20. RY*(   2) H   3                  0.00013     1.75377   
    21. RY*(   3) H   3                  0.00013     1.75406   
    22. RY*(   4) H   3                  0.00000     2.15876   
    23. RY*(   1) H   4                  0.00054     0.66955   
    24. RY*(   2) H   4                  0.00013     1.74954   
    25. RY*(   3) H   4                  0.00013     1.75019   
    26. RY*(   4) H   4                  0.00000     2.14459   
    27. RY*(   1) H   5                  0.00055     0.66739   
    28. RY*(   2) H   5                  0.00013     1.75236   
    29. RY*(   3) H   5                  0.00013     1.75282   
    30. RY*(   4) H   5                  0.00000     2.15539   
    31. BD*(   1) C   1 - H   2          0.00066     0.57087   
    32. BD*(   1) C   1 - H   3          0.00066     0.57467   
    33. BD*(   1) C   1 - H   4          0.00064     0.56327   
    34. BD*(   1) C   1 - H   5          0.00066     0.57088   
       -------------------------------
              Total Lewis    9.99417  ( 99.9417%)
        Valence non-Lewis    0.00262  (  0.0262%)
        Rydberg non-Lewis    0.00321  (  0.0321%)
       -------------------------------
            Total unit  1   10.00000  (100.0000%)
           Charge unit  1    0.00000
 Leave Link  607 at Sun May 29 14:24:54 2022, MaxMem=   262144000 cpu:               1.3 elap:               0.3
 (Enter /binaries/g16/l701.exe)
 ... and contract with generalized density number  0.
 Compute integral first derivatives.
   1 Symmetry operations used in ECPInt.
 ECPInt:  NShTT=     171 NPrTT=     553 LenC2=     172 LenP2D=     543.
 LDataN:  DoStor=T MaxTD1= 5 Len=  102
 Leave Link  701 at Sun May 29 14:24:54 2022, MaxMem=   262144000 cpu:               0.3 elap:               0.1
 (Enter /binaries/g16/l702.exe)
 L702 exits ... SP integral derivatives will be done elsewhere.
 Leave Link  702 at Sun May 29 14:24:54 2022, MaxMem=   262144000 cpu:               0.1 elap:               0.0
 (Enter /binaries/g16/l703.exe)
 Integral derivatives from FoFJK, PRISM(SPDF).
 Compute integral first derivatives, UseDBF=F ICtDFT=           0.
 Calling FoFJK, ICntrl=      2127 FMM=F ISym2X=0 I1Cent= 0 IOpClX= 0 NMat=1 NMatS=1 NMatT=0.
 FoFJK:  IHMeth= 1 ICntrl=    2127 DoSepK=F KAlg= 0 I1Cent=           0 FoldK=F
 IRaf=         0 NMat=       1 IRICut=       1 DoRegI=T DoRafI=F ISym2E= 0 IDoP0=0 IntGTp=1.
 FoFCou: FMM=F IPFlag=           0 FMFlag=      100000 FMFlg1=         800
         NFxFlg=           0 DoJE=F BraDBF=F KetDBF=F FulRan=T
         wScrn=  0.000000 ICntrl=      2127 IOpCl=  0 I1Cent=           0 NGrid=           0
         NMat0=    1 NMatS0=      1 NMatT0=    0 NMatD0=    1 NMtDS0=    0 NMtDT0=    0
 Symmetry not used in FoFCou.
 Leave Link  703 at Sun May 29 14:24:54 2022, MaxMem=   262144000 cpu:               0.8 elap:               0.2
 (Enter /binaries/g16/l716.exe)
 Dipole        =-8.50706640D-04-1.18319249D-05-7.06673893D-05
 ***** Axes restored to original set *****
 -------------------------------------------------------------------
 Center     Atomic                   Forces (Hartrees/Bohr)
 Number     Number              X              Y              Z
 -------------------------------------------------------------------
      1        6           0.000546525    0.000752761   -0.004608264
      2        1           0.006362570   -0.018037384    0.000029217
      3        1           0.007056772    0.009987389    0.017008797
      4        1           0.005164487    0.007308378   -0.012458431
      5        1          -0.019130354   -0.000011144    0.000028682
 -------------------------------------------------------------------
 Cartesian Forces:  Max     0.019130354 RMS     0.009757203
 Leave Link  716 at Sun May 29 14:24:55 2022, MaxMem=   262144000 cpu:               0.1 elap:               0.0
 (Enter /binaries/g16/l103.exe)

 GradGradGradGradGradGradGradGradGradGradGradGradGradGradGradGradGradGrad
 Berny optimization.
 FormGI is forming the generalized inverse of G from B-inverse, IUseBI=4.
 Internal  Forces:  Max     0.020948220 RMS     0.010021190
 Search for a local minimum.
 Step number   1 out of a maximum of   24 on scan point     1 out of    11
 All quantities printed in internal units (Hartrees-Bohrs-Radians)
 RMS Force = .89447D-02 SwitMx=.10000D-02 MixMth= 1
 Mixed Optimization -- RFO/linear search
 Second derivative matrix not updated -- first step.
 The second derivative matrix:
                          R1        R2        R3        R4        A1
           R1           0.37229
           R2           0.00000   0.37535
           R3           0.00000   0.00000   0.36611
           R4           0.00000   0.00000   0.00000   0.37230
           A1           0.00000   0.00000   0.00000   0.00000   0.16000
           A2           0.00000   0.00000   0.00000   0.00000   0.00000
           A3           0.00000   0.00000   0.00000   0.00000   0.00000
           A4           0.00000   0.00000   0.00000   0.00000   0.00000
           A5           0.00000   0.00000   0.00000   0.00000   0.00000
           A6           0.00000   0.00000   0.00000   0.00000   0.00000
           D1           0.00000   0.00000   0.00000   0.00000   0.00000
           D2           0.00000   0.00000   0.00000   0.00000   0.00000
           D3           0.00000   0.00000   0.00000   0.00000   0.00000
           D4           0.00000   0.00000   0.00000   0.00000   0.00000
                          A2        A3        A4        A5        A6
           A2           0.16000
           A3           0.00000   0.16000
           A4           0.00000   0.00000   0.16000
           A5           0.00000   0.00000   0.00000   0.16000
           A6           0.00000   0.00000   0.00000   0.00000   0.16000
           D1           0.00000   0.00000   0.00000   0.00000   0.00000
           D2           0.00000   0.00000   0.00000   0.00000   0.00000
           D3           0.00000   0.00000   0.00000   0.00000   0.00000
           D4           0.00000   0.00000   0.00000   0.00000   0.00000
                          D1        D2        D3        D4
           D1           0.00434
           D2           0.00000   0.00499
           D3           0.00000   0.00000   0.00499
           D4           0.00000   0.00000   0.00000   0.00499
 ITU=  0
     Eigenvalues ---    0.05257   0.05901   0.08731   0.16000   0.16000
     Eigenvalues ---    0.36611   0.37230   0.375351000.000001000.00000
     Eigenvalues --- 1000.000001000.000001000.000001000.00000
 RFO step:  Lambda=-2.77450143D-03 EMin= 5.25714373D-02
 Linear search not attempted -- first point.
 Iteration  1 RMS(Cart)=  0.02213421 RMS(Int)=  0.00001409
 Iteration  2 RMS(Cart)=  0.00001087 RMS(Int)=  0.00000011
 Iteration  3 RMS(Cart)=  0.00000000 RMS(Int)=  0.00000011
 Iteration  1 RMS(Cart)=  0.00000000 RMS(Int)=  0.00000000
 ITry= 1 IFail=0 DXMaxC= 4.76D-02 DCOld= 1.00D+10 DXMaxT= 3.00D-01 DXLimC= 3.00D+00 Rises=F
 Variable       Old X    -DE/DX   Delta X   Delta X   Delta X     New X
                                 (Linear)    (Quad)   (Total)
    R1        2.02202   0.01913   0.00000   0.00000   0.00000   2.02202
    R2        2.01747   0.02095   0.00000   0.05540   0.05540   2.07287
    R3        2.03137   0.01534   0.00000   0.04158   0.04158   2.07295
    R4        2.02201   0.01913   0.00000   0.05100   0.05100   2.07301
    A1        1.91140   0.00002   0.00000   0.00015   0.00015   1.91155
    A2        1.90898   0.00003   0.00000   0.00051   0.00051   1.90948
    A3        1.91066  -0.00004   0.00000   0.00013   0.00013   1.91079
    A4        1.91226  -0.00013   0.00000  -0.00142  -0.00142   1.91084
    A5        1.91146   0.00004   0.00000   0.00012   0.00012   1.91158
    A6        1.90904   0.00009   0.00000   0.00052   0.00052   1.90956
    D1       -2.09531   0.00004   0.00000   0.00037   0.00037  -2.09494
    D2        2.09586   0.00003   0.00000   0.00033   0.00033   2.09619
    D3       -2.09141  -0.00006   0.00000  -0.00101  -0.00101  -2.09242
    D4        2.09592  -0.00009   0.00000  -0.00135  -0.00135   2.09457
         Item               Value     Threshold  Converged?
 Maximum Force            0.020948     0.000450     NO 
 RMS     Force            0.008945     0.000300     NO 
 Maximum Displacement     0.047562     0.001800     NO 
 RMS     Displacement     0.022133     0.001200     NO 
 Predicted change in Energy=-1.397523D-03
 Lowest energy point so far.  Saving SCF results.
 GradGradGradGradGradGradGradGradGradGradGradGradGradGradGradGradGradGrad

 Leave Link  103 at Sun May 29 14:24:55 2022, MaxMem=   262144000 cpu:               0.0 elap:               0.0
 (Enter /binaries/g16/l202.exe)
                          Input orientation:                          
 ---------------------------------------------------------------------
 Center     Atomic      Atomic             Coordinates (Angstroms)
 Number     Number       Type             X           Y           Z
 ---------------------------------------------------------------------
      1          6           0        4.293621    3.653737   -0.001275
      2          1           0        4.650383    2.644959   -0.001120
      3          1           0        4.660430    4.172433    0.892948
      4          1           0        4.658035    4.169061   -0.898471
      5          1           0        3.196631    3.653809   -0.001083
 ---------------------------------------------------------------------
                    Distance matrix (angstroms):
                    1          2          3          4          5
     1  C    0.000000
     2  H    1.070006   0.000000
     3  H    1.096918   1.769925   0.000000
     4  H    1.096958   1.768667   1.791424   0.000000
     5  H    1.096990   1.769512   1.791918   1.790668   0.000000
 Stoichiometry    CH4
 Framework group  C1[X(CH4)]
 Deg. of freedom     9
 Full point group                 C1      NOp   1
 RotChk:  IX=1 Diff= 1.85D+00
 Largest Abelian subgroup         C1      NOp   1
 Largest concise Abelian subgroup C1      NOp   1
                         Standard orientation:                         
 ---------------------------------------------------------------------
 Center     Atomic      Atomic             Coordinates (Angstroms)
 Number     Number       Type             X           Y           Z
 ---------------------------------------------------------------------
      1          6           0       -0.000178    0.000129   -0.002691
      2          1           0        0.008638   -0.016204   -1.072535
      3          1           0       -1.016753    0.209245    0.352379
      4          1           0        0.327578   -0.974496    0.379407
      5          1           0        0.681602    0.780683    0.356893
 ---------------------------------------------------------------------
 Rotational constants (GHZ):         159.2401297         159.1090023         156.2698968
 Leave Link  202 at Sun May 29 14:24:55 2022, MaxMem=   262144000 cpu:               0.0 elap:               0.0
 (Enter /binaries/g16/l301.exe)
 Standard basis: def2SVP (5D, 7F)
 Ernie: Thresh=  0.10000D-02 Tol=  0.10000D-05 Strict=F.
 There are    35 symmetry adapted cartesian basis functions of A   symmetry.
 There are    34 symmetry adapted basis functions of A   symmetry.
    34 basis functions,    53 primitive gaussians,    35 cartesian basis functions
     5 alpha electrons        5 beta electrons
       nuclear repulsion energy        13.4340891256 Hartrees.
 IExCor= 4336 DFT=T Ex+Corr=M062X ExCW=0 ScaHFX=  0.540000
 ScaDFX=  1.000000  1.000000  1.000000  1.000000 ScalE2=  1.000000  1.000000
 IRadAn=      5 IRanWt=     -1 IRanGd=            0 ICorTp=0 IEmpDi=  4
 NAtoms=    5 NActive=    5 NUniq=    5 SFac= 1.00D+00 NAtFMM=   60 NAOKFM=F Big=F
 Integral buffers will be    131072 words long.
 Raffenetti 2 integral format.
 Two-electron integral symmetry is turned on.
 Leave Link  301 at Sun May 29 14:24:55 2022, MaxMem=   262144000 cpu:               0.1 elap:               0.0
 (Enter /binaries/g16/l302.exe)
 NPDir=0 NMtPBC=     1 NCelOv=     1 NCel=       1 NClECP=     1 NCelD=      1
         NCelK=      1 NCelE2=     1 NClLst=     1 CellRange=     0.0.
 One-electron integrals computed using PRISM.
 One-electron integral symmetry used in STVInt
   1 Symmetry operations used in ECPInt.
 ECPInt:  NShTT=     171 NPrTT=     553 LenC2=     172 LenP2D=     540.
 LDataN:  DoStor=T MaxTD1= 4 Len=   56
 NBasis=    34 RedAO= T EigKep=  1.39D-02  NBF=    34
 NBsUse=    34 1.00D-06 EigRej= -1.00D+00 NBFU=    34
 Precomputing XC quadrature grid using
 IXCGrd= 4 IRadAn=           5 IRanWt=          -1 IRanGd=           0 AccXCQ= 0.00D+00.
 Generated NRdTot=       0 NPtTot=           0 NUsed=           0 NTot=          32
 NSgBfM=    35    35    35    35    35 MxSgAt=     5 MxSgA2=     5.
 Leave Link  302 at Sun May 29 14:24:55 2022, MaxMem=   262144000 cpu:               0.3 elap:               0.1
 (Enter /binaries/g16/l303.exe)
 DipDrv:  MaxL=1.
 Leave Link  303 at Sun May 29 14:24:55 2022, MaxMem=   262144000 cpu:               0.1 elap:               0.0
 (Enter /binaries/g16/l401.exe)
 Initial guess from the checkpoint file:  "in.chk"
 B after Tr=     0.000000    0.000000    0.000000
         Rot=    0.755532   -0.319365    0.389080    0.419278 Ang= -81.86 deg.
 Guess basis will be translated and rotated to current coordinates.
 JPrj=2 DoOrth=T DoCkMO=T.
 Generating alternative initial guess.
 ExpMin= 1.22D-01 ExpMax= 1.24D+03 ExpMxC= 1.86D+02 IAcc=3 IRadAn=         5 AccDes= 0.00D+00
 Harris functional with IExCor= 1009 and IRadAn=       5 diagonalized for initial guess.
 HarFok:  IExCor= 1009 AccDes= 0.00D+00 IRadAn=         5 IDoV= 1 UseB2=F ITyADJ=14
 ICtDFT=  3500011 ScaDFX=  1.000000  1.000000  1.000000  1.000000
 FoFCou: FMM=F IPFlag=           0 FMFlag=      100000 FMFlg1=           0
         NFxFlg=           0 DoJE=T BraDBF=F KetDBF=T FulRan=T
         wScrn=  0.000000 ICntrl=       500 IOpCl=  0 I1Cent=   200000004 NGrid=           0
         NMat0=    1 NMatS0=      1 NMatT0=    0 NMatD0=    1 NMtDS0=    0 NMtDT0=    0
 Petite list used in FoFCou.
 Harris En= -40.4841481704118    
 Leave Link  401 at Sun May 29 14:24:55 2022, MaxMem=   262144000 cpu:               0.5 elap:               0.1
 (Enter /binaries/g16/l502.exe)
 Keep R1 ints in memory in canonical form, NReq=3636988.
 FoFCou: FMM=F IPFlag=           0 FMFlag=           0 FMFlg1=           0
         NFxFlg=           0 DoJE=F BraDBF=F KetDBF=F FulRan=T
         wScrn=  0.000000 ICntrl=       600 IOpCl=  0 I1Cent=           0 NGrid=           0
         NMat0=    1 NMatS0=    595 NMatT0=    0 NMatD0=    1 NMtDS0=    0 NMtDT0=    0
 Symmetry not used in FoFCou.
 Two-electron integral symmetry not used.
 Closed shell SCF:
 Using DIIS extrapolation, IDIIS=  1040.
 NGot=   262144000 LenX=   261963332 LenY=   261961666
 Requested convergence on RMS density matrix=1.00D-08 within 128 cycles.
 Requested convergence on MAX density matrix=1.00D-06.
 Requested convergence on             energy=1.00D-06.
 No special actions if energy rises.
 Integral accuracy reduced to 1.0D-05 until final iterations.

 Cycle   1  Pass 0  IDiag  1:
 E= -40.4493844550013    
 DIIS: error= 3.00D-03 at cycle   1 NSaved=   1.
 NSaved= 1 IEnMin= 1 EnMin= -40.4493844550013     IErMin= 1 ErrMin= 3.00D-03
 ErrMax= 3.00D-03  0.00D+00 EMaxC= 1.00D-01 BMatC= 2.45D-04 BMatP= 2.45D-04
 IDIUse=3 WtCom= 9.70D-01 WtEn= 3.00D-02
 Coeff-Com:  0.100D+01
 Coeff-En:   0.100D+01
 Coeff:      0.100D+01
 Gap=     0.799 Goal=   None    Shift=    0.000
 GapD=    0.799 DampG=2.000 DampE=1.000 DampFc=2.0000 IDamp=-1.
 RMSDP=6.73D-04 MaxDP=6.62D-03              OVMax= 7.07D-03

 Cycle   2  Pass 0  IDiag  1:
 E= -40.4496471007242     Delta-E=       -0.000262645723 Rises=F Damp=F
 DIIS: error= 1.17D-03 at cycle   2 NSaved=   2.
 NSaved= 2 IEnMin= 2 EnMin= -40.4496471007242     IErMin= 2 ErrMin= 1.17D-03
 ErrMax= 1.17D-03  0.00D+00 EMaxC= 1.00D-01 BMatC= 3.32D-05 BMatP= 2.45D-04
 IDIUse=3 WtCom= 9.88D-01 WtEn= 1.17D-02
 Coeff-Com:  0.164D+00 0.836D+00
 Coeff-En:   0.000D+00 0.100D+01
 Coeff:      0.162D+00 0.838D+00
 Gap=     0.569 Goal=   None    Shift=    0.000
 RMSDP=2.02D-04 MaxDP=3.18D-03 DE=-2.63D-04 OVMax= 2.98D-03

 Cycle   3  Pass 0  IDiag  1:
 E= -40.4496731782080     Delta-E=       -0.000026077484 Rises=F Damp=F
 DIIS: error= 5.40D-04 at cycle   3 NSaved=   3.
 NSaved= 3 IEnMin= 3 EnMin= -40.4496731782080     IErMin= 3 ErrMin= 5.40D-04
 ErrMax= 5.40D-04  0.00D+00 EMaxC= 1.00D-01 BMatC= 8.26D-06 BMatP= 3.32D-05
 IDIUse=3 WtCom= 9.95D-01 WtEn= 5.40D-03
 Coeff-Com: -0.236D-01 0.323D+00 0.701D+00
 Coeff-En:   0.000D+00 0.925D-01 0.907D+00
 Coeff:     -0.235D-01 0.321D+00 0.702D+00
 Gap=     0.568 Goal=   None    Shift=    0.000
 RMSDP=6.90D-05 MaxDP=8.79D-04 DE=-2.61D-05 OVMax= 1.02D-03

 Cycle   4  Pass 0  IDiag  1:
 E= -40.4496819366589     Delta-E=       -0.000008758451 Rises=F Damp=F
 DIIS: error= 3.71D-05 at cycle   4 NSaved=   4.
 NSaved= 4 IEnMin= 4 EnMin= -40.4496819366589     IErMin= 4 ErrMin= 3.71D-05
 ErrMax= 3.71D-05  0.00D+00 EMaxC= 1.00D-01 BMatC= 2.86D-08 BMatP= 8.26D-06
 IDIUse=1 WtCom= 1.00D+00 WtEn= 0.00D+00
 Coeff-Com: -0.459D-02 0.369D-02 0.456D-01 0.955D+00
 Coeff:     -0.459D-02 0.369D-02 0.456D-01 0.955D+00
 Gap=     0.568 Goal=   None    Shift=    0.000
 RMSDP=7.25D-06 MaxDP=6.95D-05 DE=-8.76D-06 OVMax= 1.17D-04

 Initial convergence to 1.0D-05 achieved.  Increase integral accuracy.
 Cycle   5  Pass 1  IDiag  1:
 E= -40.4496832273890     Delta-E=       -0.000001290730 Rises=F Damp=F
 DIIS: error= 1.70D-05 at cycle   1 NSaved=   1.
 NSaved= 1 IEnMin= 1 EnMin= -40.4496832273890     IErMin= 1 ErrMin= 1.70D-05
 ErrMax= 1.70D-05  0.00D+00 EMaxC= 1.00D-01 BMatC= 1.63D-08 BMatP= 1.63D-08
 IDIUse=1 WtCom= 1.00D+00 WtEn= 0.00D+00
 Coeff-Com:  0.100D+01
 Coeff:      0.100D+01
 Gap=     0.568 Goal=   None    Shift=    0.000
 RMSDP=7.25D-06 MaxDP=6.95D-05 DE=-1.29D-06 OVMax= 4.07D-05

 Cycle   6  Pass 1  IDiag  1:
 E= -40.4496832422552     Delta-E=       -0.000000014866 Rises=F Damp=F
 DIIS: error= 3.77D-06 at cycle   2 NSaved=   2.
 NSaved= 2 IEnMin= 2 EnMin= -40.4496832422552     IErMin= 2 ErrMin= 3.77D-06
 ErrMax= 3.77D-06  0.00D+00 EMaxC= 1.00D-01 BMatC= 5.26D-10 BMatP= 1.63D-08
 IDIUse=1 WtCom= 1.00D+00 WtEn= 0.00D+00
 Coeff-Com:  0.263D-01 0.974D+00
 Coeff:      0.263D-01 0.974D+00
 Gap=     0.568 Goal=   None    Shift=    0.000
 RMSDP=9.00D-07 MaxDP=1.19D-05 DE=-1.49D-08 OVMax= 1.16D-05

 Cycle   7  Pass 1  IDiag  1:
 E= -40.4496832425949     Delta-E=       -0.000000000340 Rises=F Damp=F
 DIIS: error= 2.91D-06 at cycle   3 NSaved=   3.
 NSaved= 3 IEnMin= 3 EnMin= -40.4496832425949     IErMin= 3 ErrMin= 2.91D-06
 ErrMax= 2.91D-06  0.00D+00 EMaxC= 1.00D-01 BMatC= 2.22D-10 BMatP= 5.26D-10
 IDIUse=1 WtCom= 1.00D+00 WtEn= 0.00D+00
 Coeff-Com: -0.214D-01 0.386D+00 0.635D+00
 Coeff:     -0.214D-01 0.386D+00 0.635D+00
 Gap=     0.568 Goal=   None    Shift=    0.000
 RMSDP=3.73D-07 MaxDP=5.06D-06 DE=-3.40D-10 OVMax= 5.42D-06

 Cycle   8  Pass 1  IDiag  1:
 E= -40.4496832428239     Delta-E=       -0.000000000229 Rises=F Damp=F
 DIIS: error= 2.74D-07 at cycle   4 NSaved=   4.
 NSaved= 4 IEnMin= 4 EnMin= -40.4496832428239     IErMin= 4 ErrMin= 2.74D-07
 ErrMax= 2.74D-07  0.00D+00 EMaxC= 1.00D-01 BMatC= 2.51D-12 BMatP= 2.22D-10
 IDIUse=1 WtCom= 1.00D+00 WtEn= 0.00D+00
 Coeff-Com: -0.586D-02 0.368D-01 0.125D+00 0.845D+00
 Coeff:     -0.586D-02 0.368D-01 0.125D+00 0.845D+00
 Gap=     0.568 Goal=   None    Shift=    0.000
 RMSDP=4.38D-08 MaxDP=5.05D-07 DE=-2.29D-10 OVMax= 6.30D-07

 Cycle   9  Pass 1  IDiag  1:
 E= -40.4496832428267     Delta-E=       -0.000000000003 Rises=F Damp=F
 DIIS: error= 3.32D-08 at cycle   5 NSaved=   5.
 NSaved= 5 IEnMin= 5 EnMin= -40.4496832428267     IErMin= 5 ErrMin= 3.32D-08
 ErrMax= 3.32D-08  0.00D+00 EMaxC= 1.00D-01 BMatC= 3.48D-14 BMatP= 2.51D-12
 IDIUse=1 WtCom= 1.00D+00 WtEn= 0.00D+00
 Coeff-Com:  0.508D-03-0.110D-01-0.159D-01 0.242D-01 0.100D+01
 Coeff:      0.508D-03-0.110D-01-0.159D-01 0.242D-01 0.100D+01
 Gap=     0.568 Goal=   None    Shift=    0.000
 RMSDP=9.27D-09 MaxDP=6.45D-08 DE=-2.79D-12 OVMax= 1.20D-07

 SCF Done:  E(RM062X) =  -40.4496832428     A.U. after    9 cycles
            NFock=  9  Conv=0.93D-08     -V/T= 2.0142
 KE= 3.988490319062D+01 PE=-1.196265358269D+02 EE= 2.585786026789D+01
 Leave Link  502 at Sun May 29 14:24:55 2022, MaxMem=   262144000 cpu:               2.5 elap:               0.6
 (Enter /binaries/g16/l701.exe)
 ... and contract with generalized density number  0.
 Compute integral first derivatives.
   1 Symmetry operations used in ECPInt.
 ECPInt:  NShTT=     171 NPrTT=     553 LenC2=     172 LenP2D=     540.
 LDataN:  DoStor=T MaxTD1= 5 Len=  102
 Leave Link  701 at Sun May 29 14:24:55 2022, MaxMem=   262144000 cpu:               0.2 elap:               0.1
 (Enter /binaries/g16/l702.exe)
 L702 exits ... SP integral derivatives will be done elsewhere.
 Leave Link  702 at Sun May 29 14:24:56 2022, MaxMem=   262144000 cpu:               0.1 elap:               0.0
 (Enter /binaries/g16/l703.exe)
 Integral derivatives from FoFJK, PRISM(SPDF).
 Compute integral first derivatives, UseDBF=F ICtDFT=           0.
 Calling FoFJK, ICntrl=      2127 FMM=F ISym2X=0 I1Cent= 0 IOpClX= 0 NMat=1 NMatS=1 NMatT=0.
 FoFJK:  IHMeth= 1 ICntrl=    2127 DoSepK=F KAlg= 0 I1Cent=           0 FoldK=F
 IRaf=         0 NMat=       1 IRICut=       1 DoRegI=T DoRafI=F ISym2E= 0 IDoP0=0 IntGTp=1.
 FoFCou: FMM=F IPFlag=           0 FMFlag=      100000 FMFlg1=         800
         NFxFlg=           0 DoJE=F BraDBF=F KetDBF=F FulRan=T
         wScrn=  0.000000 ICntrl=      2127 IOpCl=  0 I1Cent=           0 NGrid=           0
         NMat0=    1 NMatS0=      1 NMatT0=    0 NMatD0=    1 NMtDS0=    0 NMtDT0=    0
 Symmetry not used in FoFCou.
 Leave Link  703 at Sun May 29 14:24:56 2022, MaxMem=   262144000 cpu:               0.7 elap:               0.2
 (Enter /binaries/g16/l716.exe)
 Dipole        = 3.02544992D-04-3.21063527D-04-5.30541024D-03
 ***** Axes restored to original set *****
 -------------------------------------------------------------------
 Center     Atomic                   Forces (Hartrees/Bohr)
 Number     Number              X              Y              Z
 -------------------------------------------------------------------
      1        6          -0.006172829    0.017351098   -0.000243463
      2        1           0.006347621   -0.017998897    0.000109896
      3        1          -0.000330555    0.000098291   -0.000410217
      4        1          -0.000260967    0.000193523    0.000442542
      5        1           0.000416730    0.000355984    0.000101241
 -------------------------------------------------------------------
 Cartesian Forces:  Max     0.017998897 RMS     0.006852676
 Leave Link  716 at Sun May 29 14:24:56 2022, MaxMem=   262144000 cpu:               0.1 elap:               0.0
 (Enter /binaries/g16/l103.exe)

 GradGradGradGradGradGradGradGradGradGradGradGradGradGradGradGradGradGrad
 Berny optimization.
 Using GEDIIS/GDIIS optimizer.
 FormGI is forming the generalized inverse of G from B-inverse, IUseBI=4.
 Internal  Forces:  Max     0.019085412 RMS     0.005106741
 Search for a local minimum.
 Step number   2 out of a maximum of   24 on scan point     1 out of    11
 All quantities printed in internal units (Hartrees-Bohrs-Radians)
 RMS Force = .25576D-03 SwitMx=.10000D-02 MixMth= 2
 Mixed Optimization -- En-DIIS/RFO-DIIS
 Update second derivatives using D2CorX and points    1    2
 DE= -1.32D-03 DEPred=-1.40D-03 R= 9.47D-01
 TightC=F SS=  1.41D+00  RLast= 8.61D-02 DXNew= 5.0454D-01 2.5816D-01
 Trust test= 9.47D-01 RLast= 8.61D-02 DXMaxT set to 3.00D-01
 The second derivative matrix:
                          R1        R2        R3        R4        A1
           R1           0.37229
           R2           0.00031   0.37924
           R3           0.00023   0.00337   0.36896
           R4           0.00028   0.00396   0.00337   0.37629
           A1          -0.00000  -0.00054  -0.00040  -0.00050   0.16000
           A2          -0.00000  -0.00171  -0.00126  -0.00157   0.00000
           A3          -0.00000  -0.00221  -0.00162  -0.00202   0.00000
           A4          -0.00000   0.00110   0.00080   0.00100   0.00000
           A5           0.00000   0.00220   0.00162   0.00202  -0.00001
           A6           0.00000   0.00116   0.00085   0.00106  -0.00000
           D1           0.00000   0.00148   0.00109   0.00136  -0.00000
           D2          -0.00000  -0.00028  -0.00021  -0.00026   0.00000
           D3           0.00000   0.00155   0.00114   0.00141  -0.00000
           D4           0.00000   0.00183   0.00134   0.00167  -0.00000
                          A2        A3        A4        A5        A6
           A2           0.16001
           A3           0.00001   0.16003
           A4           0.00001   0.00001   0.15998
           A5          -0.00002  -0.00003  -0.00001   0.16003
           A6          -0.00001  -0.00002   0.00000   0.00003   0.16002
           D1          -0.00001  -0.00002  -0.00001   0.00002   0.00002
           D2           0.00000   0.00000   0.00000  -0.00000  -0.00000
           D3          -0.00001  -0.00002  -0.00001   0.00002   0.00002
           D4          -0.00001  -0.00002  -0.00001   0.00003   0.00002
                          D1        D2        D3        D4
           D1           0.00435
           D2          -0.00000   0.00499
           D3           0.00001  -0.00000   0.00501
           D4           0.00002  -0.00000   0.00002   0.00501
 ITU=  1  0
 Use linear search instead of GDIIS.
     Eigenvalues ---    0.05256   0.05892   0.08737   0.16000   0.16001
     Eigenvalues ---    0.36734   0.37364   0.383681000.000001000.00000
     Eigenvalues --- 1000.000001000.000001000.000001000.00000
 RFO step:  Lambda=-5.50908685D-06 EMin= 5.25557559D-02
 Quartic linear search produced a step of -0.02187.
 Iteration  1 RMS(Cart)=  0.00170620 RMS(Int)=  0.00000499
 Iteration  2 RMS(Cart)=  0.00000291 RMS(Int)=  0.00000397
 Iteration  3 RMS(Cart)=  0.00000000 RMS(Int)=  0.00000397
 Iteration  1 RMS(Cart)=  0.00000000 RMS(Int)=  0.00000000
 ITry= 1 IFail=0 DXMaxC= 2.45D-03 DCOld= 1.00D+10 DXMaxT= 3.00D-01 DXLimC= 3.00D+00 Rises=F
 Variable       Old X    -DE/DX   Delta X   Delta X   Delta X     New X
                                 (Linear)    (Quad)   (Total)
    R1        2.02202   0.01909   0.00000   0.00000   0.00000   2.02202
    R2        2.07287  -0.00040  -0.00121   0.00020  -0.00101   2.07187
    R3        2.07295  -0.00036  -0.00091  -0.00003  -0.00094   2.07201
    R4        2.07301  -0.00042  -0.00112   0.00005  -0.00107   2.07194
    A1        1.91155   0.00007  -0.00000   0.00160   0.00160   1.91314
    A2        1.90948   0.00017  -0.00001   0.00303   0.00302   1.91251
    A3        1.91079   0.00023  -0.00000   0.00214   0.00214   1.91293
    A4        1.91084  -0.00005   0.00003  -0.00234  -0.00231   1.90853
    A5        1.91158  -0.00027  -0.00000  -0.00294  -0.00295   1.90863
    A6        1.90956  -0.00015  -0.00001  -0.00150  -0.00151   1.90804
    D1       -2.09494  -0.00016  -0.00001  -0.00239  -0.00239  -2.09733
    D2        2.09619   0.00006  -0.00001   0.00147   0.00146   2.09765
    D3       -2.09242  -0.00026   0.00002  -0.00410  -0.00408  -2.09650
    D4        2.09457  -0.00032   0.00003  -0.00558  -0.00554   2.08903
         Item               Value     Threshold  Converged?
 Maximum Force            0.000417     0.000450     YES
 RMS     Force            0.000256     0.000300     YES
 Maximum Displacement     0.002452     0.001800     NO 
 RMS     Displacement     0.001708     0.001200     NO 
 Predicted change in Energy=-3.342826D-06
 Lowest energy point so far.  Saving SCF results.
 GradGradGradGradGradGradGradGradGradGradGradGradGradGradGradGradGradGrad

 Leave Link  103 at Sun May 29 14:24:56 2022, MaxMem=   262144000 cpu:               0.0 elap:               0.0
 (Enter /binaries/g16/l202.exe)
                          Input orientation:                          
 ---------------------------------------------------------------------
 Center     Atomic      Atomic             Coordinates (Angstroms)
 Number     Number       Type             X           Y           Z
 ---------------------------------------------------------------------
      1          6           0        4.294054    3.652521   -0.001626
      2          1           0        4.650750    2.643720   -0.000801
      3          1           0        4.659333    4.172796    0.891651
      4          1           0        4.657330    4.169952   -0.897464
      5          1           0        3.197632    3.655010   -0.000761
 ---------------------------------------------------------------------
                    Distance matrix (angstroms):
                    1          2          3          4          5
     1  C    0.000000
     2  H    1.070006   0.000000
     3  H    1.096384   1.770484   0.000000
     4  H    1.096463   1.770150   1.789118   0.000000
     5  H    1.096425   1.770384   1.789154   1.788843   0.000000
 Stoichiometry    CH4
 Framework group  C1[X(CH4)]
 Deg. of freedom     9
 Full point group                 C1      NOp   1
 RotChk:  IX=1 Diff= 2.09D-01
 Largest Abelian subgroup         C1      NOp   1
 Largest concise Abelian subgroup C1      NOp   1
                         Standard orientation:                         
 ---------------------------------------------------------------------
 Center     Atomic      Atomic             Coordinates (Angstroms)
 Number     Number       Type             X           Y           Z
 ---------------------------------------------------------------------
      1          6           0       -0.000065    0.000024   -0.003333
      2          1           0        0.002996   -0.005478   -1.073320
      3          1           0       -1.032504    0.055059    0.361494
      4          1           0        0.468785   -0.918080    0.370159
      5          1           0        0.561113    0.868358    0.361662
 ---------------------------------------------------------------------
 Rotational constants (GHZ):         159.1619134         159.1264830         156.6723904
 Leave Link  202 at Sun May 29 14:24:56 2022, MaxMem=   262144000 cpu:               0.0 elap:               0.0
 (Enter /binaries/g16/l301.exe)
 Standard basis: def2SVP (5D, 7F)
 Ernie: Thresh=  0.10000D-02 Tol=  0.10000D-05 Strict=F.
 There are    35 symmetry adapted cartesian basis functions of A   symmetry.
 There are    34 symmetry adapted basis functions of A   symmetry.
    34 basis functions,    53 primitive gaussians,    35 cartesian basis functions
     5 alpha electrons        5 beta electrons
       nuclear repulsion energy        13.4389441946 Hartrees.
 IExCor= 4336 DFT=T Ex+Corr=M062X ExCW=0 ScaHFX=  0.540000
 ScaDFX=  1.000000  1.000000  1.000000  1.000000 ScalE2=  1.000000  1.000000
 IRadAn=      5 IRanWt=     -1 IRanGd=            0 ICorTp=0 IEmpDi=  4
 NAtoms=    5 NActive=    5 NUniq=    5 SFac= 1.00D+00 NAtFMM=   60 NAOKFM=F Big=F
 Integral buffers will be    131072 words long.
 Raffenetti 2 integral format.
 Two-electron integral symmetry is turned on.
 Leave Link  301 at Sun May 29 14:24:56 2022, MaxMem=   262144000 cpu:               0.1 elap:               0.0
 (Enter /binaries/g16/l302.exe)
 NPDir=0 NMtPBC=     1 NCelOv=     1 NCel=       1 NClECP=     1 NCelD=      1
         NCelK=      1 NCelE2=     1 NClLst=     1 CellRange=     0.0.
 One-electron integrals computed using PRISM.
 One-electron integral symmetry used in STVInt
   1 Symmetry operations used in ECPInt.
 ECPInt:  NShTT=     171 NPrTT=     553 LenC2=     172 LenP2D=     540.
 LDataN:  DoStor=T MaxTD1= 4 Len=   56
 NBasis=    34 RedAO= T EigKep=  1.39D-02  NBF=    34
 NBsUse=    34 1.00D-06 EigRej= -1.00D+00 NBFU=    34
 Precomputing XC quadrature grid using
 IXCGrd= 4 IRadAn=           5 IRanWt=          -1 IRanGd=           0 AccXCQ= 0.00D+00.
 Generated NRdTot=       0 NPtTot=           0 NUsed=           0 NTot=          32
 NSgBfM=    35    35    35    35    35 MxSgAt=     5 MxSgA2=     5.
 Leave Link  302 at Sun May 29 14:24:56 2022, MaxMem=   262144000 cpu:               0.3 elap:               0.1
 (Enter /binaries/g16/l303.exe)
 DipDrv:  MaxL=1.
 Leave Link  303 at Sun May 29 14:24:56 2022, MaxMem=   262144000 cpu:               0.1 elap:               0.0
 (Enter /binaries/g16/l401.exe)
 Initial guess from the checkpoint file:  "in.chk"
 B after Tr=     0.000000    0.000000   -0.000000
         Rot=    0.997278   -0.004424   -0.003202   -0.073524 Ang=  -8.46 deg.
 Guess basis will be translated and rotated to current coordinates.
 JPrj=2 DoOrth=T DoCkMO=T.
 Leave Link  401 at Sun May 29 14:24:56 2022, MaxMem=   262144000 cpu:               0.2 elap:               0.0
 (Enter /binaries/g16/l502.exe)
 Keep R1 ints in memory in canonical form, NReq=3636988.
 FoFCou: FMM=F IPFlag=           0 FMFlag=           0 FMFlg1=           0
         NFxFlg=           0 DoJE=F BraDBF=F KetDBF=F FulRan=T
         wScrn=  0.000000 ICntrl=       600 IOpCl=  0 I1Cent=           0 NGrid=           0
         NMat0=    1 NMatS0=    595 NMatT0=    0 NMatD0=    1 NMtDS0=    0 NMtDT0=    0
 Symmetry not used in FoFCou.
 Two-electron integral symmetry not used.
 Closed shell SCF:
 Using DIIS extrapolation, IDIIS=  1040.
 NGot=   262144000 LenX=   261963332 LenY=   261961666
 Requested convergence on RMS density matrix=1.00D-08 within 128 cycles.
 Requested convergence on MAX density matrix=1.00D-06.
 Requested convergence on             energy=1.00D-06.
 No special actions if energy rises.

 Cycle   1  Pass 1  IDiag  1:
 E= -40.4496864604896    
 DIIS: error= 1.34D-04 at cycle   1 NSaved=   1.
 NSaved= 1 IEnMin= 1 EnMin= -40.4496864604896     IErMin= 1 ErrMin= 1.34D-04
 ErrMax= 1.34D-04  0.00D+00 EMaxC= 1.00D-01 BMatC= 5.94D-07 BMatP= 5.94D-07
 IDIUse=3 WtCom= 9.99D-01 WtEn= 1.34D-03
 Coeff-Com:  0.100D+01
 Coeff-En:   0.100D+01
 Coeff:      0.100D+01
 Gap=     0.795 Goal=   None    Shift=    0.000
 RMSDP=3.15D-05 MaxDP=2.74D-04              OVMax= 3.74D-04

 Cycle   2  Pass 1  IDiag  1:
 E= -40.4496871415065     Delta-E=       -0.000000681017 Rises=F Damp=F
 DIIS: error= 2.40D-05 at cycle   2 NSaved=   2.
 NSaved= 2 IEnMin= 2 EnMin= -40.4496871415065     IErMin= 2 ErrMin= 2.40D-05
 ErrMax= 2.40D-05  0.00D+00 EMaxC= 1.00D-01 BMatC= 2.05D-08 BMatP= 5.94D-07
 IDIUse=1 WtCom= 1.00D+00 WtEn= 0.00D+00
 Coeff-Com: -0.118D-01 0.101D+01
 Coeff:     -0.118D-01 0.101D+01
 Gap=     0.568 Goal=   None    Shift=    0.000
 RMSDP=6.36D-06 MaxDP=7.78D-05 DE=-6.81D-07 OVMax= 8.08D-05

 Cycle   3  Pass 1  IDiag  1:
 E= -40.4496871595325     Delta-E=       -0.000000018026 Rises=F Damp=F
 DIIS: error= 1.93D-05 at cycle   3 NSaved=   3.
 NSaved= 3 IEnMin= 3 EnMin= -40.4496871595325     IErMin= 3 ErrMin= 1.93D-05
 ErrMax= 1.93D-05  0.00D+00 EMaxC= 1.00D-01 BMatC= 9.14D-09 BMatP= 2.05D-08
 IDIUse=1 WtCom= 1.00D+00 WtEn= 0.00D+00
 Coeff-Com: -0.375D-01 0.406D+00 0.632D+00
 Coeff:     -0.375D-01 0.406D+00 0.632D+00
 Gap=     0.568 Goal=   None    Shift=    0.000
 RMSDP=2.38D-06 MaxDP=3.20D-05 DE=-1.80D-08 OVMax= 3.60D-05

 Cycle   4  Pass 1  IDiag  1:
 E= -40.4496871690005     Delta-E=       -0.000000009468 Rises=F Damp=F
 DIIS: error= 1.87D-06 at cycle   4 NSaved=   4.
 NSaved= 4 IEnMin= 4 EnMin= -40.4496871690005     IErMin= 4 ErrMin= 1.87D-06
 ErrMax= 1.87D-06  0.00D+00 EMaxC= 1.00D-01 BMatC= 9.40D-11 BMatP= 9.14D-09
 IDIUse=1 WtCom= 1.00D+00 WtEn= 0.00D+00
 Coeff-Com: -0.588D-02 0.332D-02 0.786D-01 0.924D+00
 Coeff:     -0.588D-02 0.332D-02 0.786D-01 0.924D+00
 Gap=     0.568 Goal=   None    Shift=    0.000
 RMSDP=3.28D-07 MaxDP=3.46D-06 DE=-9.47D-09 OVMax= 4.75D-06

 Cycle   5  Pass 1  IDiag  1:
 E= -40.4496871691148     Delta-E=       -0.000000000114 Rises=F Damp=F
 DIIS: error= 4.10D-07 at cycle   5 NSaved=   5.
 NSaved= 5 IEnMin= 5 EnMin= -40.4496871691148     IErMin= 5 ErrMin= 4.10D-07
 ErrMax= 4.10D-07  0.00D+00 EMaxC= 1.00D-01 BMatC= 2.30D-12 BMatP= 9.40D-11
 IDIUse=1 WtCom= 1.00D+00 WtEn= 0.00D+00
 Coeff-Com:  0.734D-03-0.125D-01-0.114D-01 0.124D+00 0.899D+00
 Coeff:      0.734D-03-0.125D-01-0.114D-01 0.124D+00 0.899D+00
 Gap=     0.568 Goal=   None    Shift=    0.000
 RMSDP=5.36D-08 MaxDP=3.99D-07 DE=-1.14D-10 OVMax= 9.06D-07

 Cycle   6  Pass 1  IDiag  1:
 E= -40.4496871691179     Delta-E=       -0.000000000003 Rises=F Damp=F
 DIIS: error= 2.50D-08 at cycle   6 NSaved=   6.
 NSaved= 6 IEnMin= 6 EnMin= -40.4496871691179     IErMin= 6 ErrMin= 2.50D-08
 ErrMax= 2.50D-08  0.00D+00 EMaxC= 1.00D-01 BMatC= 1.81D-14 BMatP= 2.30D-12
 IDIUse=1 WtCom= 1.00D+00 WtEn= 0.00D+00
 Coeff-Com: -0.699D-04 0.188D-02 0.807D-03-0.311D-01-0.113D+00 0.114D+01
 Coeff:     -0.699D-04 0.188D-02 0.807D-03-0.311D-01-0.113D+00 0.114D+01
 Gap=     0.568 Goal=   None    Shift=    0.000
 RMSDP=9.78D-09 MaxDP=8.68D-08 DE=-3.08D-12 OVMax= 1.34D-07

 SCF Done:  E(RM062X) =  -40.4496871691     A.U. after    6 cycles
            NFock=  6  Conv=0.98D-08     -V/T= 2.0141
 KE= 3.988688518511D+01 PE=-1.196375730605D+02 EE= 2.586205651161D+01
 Leave Link  502 at Sun May 29 14:24:57 2022, MaxMem=   262144000 cpu:               2.3 elap:               0.6
 (Enter /binaries/g16/l701.exe)
 ... and contract with generalized density number  0.
 Compute integral first derivatives.
   1 Symmetry operations used in ECPInt.
 ECPInt:  NShTT=     171 NPrTT=     553 LenC2=     172 LenP2D=     540.
 LDataN:  DoStor=T MaxTD1= 5 Len=  102
 Leave Link  701 at Sun May 29 14:24:57 2022, MaxMem=   262144000 cpu:               0.3 elap:               0.1
 (Enter /binaries/g16/l702.exe)
 L702 exits ... SP integral derivatives will be done elsewhere.
 Leave Link  702 at Sun May 29 14:24:57 2022, MaxMem=   262144000 cpu:               0.1 elap:               0.0
 (Enter /binaries/g16/l703.exe)
 Integral derivatives from FoFJK, PRISM(SPDF).
 Compute integral first derivatives, UseDBF=F ICtDFT=           0.
 Calling FoFJK, ICntrl=      2127 FMM=F ISym2X=0 I1Cent= 0 IOpClX= 0 NMat=1 NMatS=1 NMatT=0.
 FoFJK:  IHMeth= 1 ICntrl=    2127 DoSepK=F KAlg= 0 I1Cent=           0 FoldK=F
 IRaf=         0 NMat=       1 IRICut=       1 DoRegI=T DoRafI=F ISym2E= 0 IDoP0=0 IntGTp=1.
 FoFCou: FMM=F IPFlag=           0 FMFlag=      100000 FMFlg1=         800
         NFxFlg=           0 DoJE=F BraDBF=F KetDBF=F FulRan=T
         wScrn=  0.000000 ICntrl=      2127 IOpCl=  0 I1Cent=           0 NGrid=           0
         NMat0=    1 NMatS0=      1 NMatT0=    0 NMatD0=    1 NMtDS0=    0 NMtDT0=    0
 Symmetry not used in FoFCou.
 Leave Link  703 at Sun May 29 14:24:57 2022, MaxMem=   262144000 cpu:               0.7 elap:               0.2
 (Enter /binaries/g16/l716.exe)
 Dipole        = 9.66387122D-05-6.64352250D-05-4.14509947D-03
 ***** Axes restored to original set *****
 -------------------------------------------------------------------
 Center     Atomic                   Forces (Hartrees/Bohr)
 Number     Number              X              Y              Z
 -------------------------------------------------------------------
      1        6          -0.006237474    0.017611471   -0.000120610
      2        1           0.006323909   -0.017902616    0.000048559
      3        1          -0.000046959    0.000092477   -0.000017754
      4        1          -0.000042569    0.000098787    0.000063100
      5        1           0.000003093    0.000099881    0.000026704
 -------------------------------------------------------------------
 Cartesian Forces:  Max     0.017902616 RMS     0.006878080
 Leave Link  716 at Sun May 29 14:24:57 2022, MaxMem=   262144000 cpu:               0.1 elap:               0.0
 (Enter /binaries/g16/l103.exe)

 GradGradGradGradGradGradGradGradGradGradGradGradGradGradGradGradGradGrad
 Berny optimization.
 Using GEDIIS/GDIIS optimizer.
 FormGI is forming the generalized inverse of G from B-inverse, IUseBI=4.
 Internal  Forces:  Max     0.018986750 RMS     0.005074649
 Search for a local minimum.
[...]
     3  H    0.404015  -0.000004   0.524577  -0.021919  -0.021922
     4  H    0.404012  -0.000004  -0.021919   0.524586  -0.021922
     5  H    0.404012  -0.000004  -0.021922  -0.021922   0.524592
 Mulliken charges:
               1
     1  C   -0.185460
     2  H   -0.160284
     3  H    0.115253
     4  H    0.115248
     5  H    0.115243
 Sum of Mulliken charges =  -0.00000
 Mulliken charges with hydrogens summed into heavy atoms:
               1
     1  C   -0.000000
 Electronic spatial extent (au):  <R**2>=            123.5959
 Charge=             -0.0000 electrons
 Dipole moment (field-independent basis, Debye):
    X=              3.8541    Y=              0.0003    Z=              0.0001  Tot=              3.8541
 Quadrupole moment (field-independent basis, Debye-Ang):
   XX=            -25.2176   YY=             -8.4638   ZZ=             -8.4641
   XY=             -0.0019   XZ=             -0.0006   YZ=              0.0000
 Traceless Quadrupole moment (field-independent basis, Debye-Ang):
   XX=            -11.1691   YY=              5.5847   ZZ=              5.5844
   XY=             -0.0019   XZ=             -0.0006   YZ=              0.0000
 Octapole moment (field-independent basis, Debye-Ang**2):
  XXX=             80.9893  YYY=             -0.2750  ZZZ=             -0.9959  XYY=              5.2841
  XXY=              0.0026  XXZ=              0.0008  XZZ=              5.2840  YZZ=              0.2763
  YYZ=              0.9962  XYZ=             -0.0007
 Hexadecapole moment (field-independent basis, Debye-Ang**3):
 XXXX=           -553.8840 YYYY=            -15.4784 ZZZZ=            -15.4785 XXXY=             -0.0205
 XXXZ=             -0.0061 YYYX=             -0.1470 YYYZ=              0.0002 ZZZX=             -0.5121
 ZZZY=             -0.0000 XXYY=            -44.5142 XXZZ=            -44.5142 YYZZ=             -5.1595
 XXYZ=             -0.0007 YYXZ=              0.5098 ZZXY=              0.1395
 N-N= 1.054002256846D+01 E-N=-1.130549559233D+02  KE= 3.962854599572D+01
 No NMR shielding tensors so no spin-rotation constants.
 Leave Link  601 at Sun May 29 14:25:32 2022, MaxMem=   262144000 cpu:               0.3 elap:               0.1
 (Enter /binaries/g16/l607.exe)
 ******************************Gaussian NBO Version 3.1******************************
             N A T U R A L   A T O M I C   O R B I T A L   A N D
          N A T U R A L   B O N D   O R B I T A L   A N A L Y S I S
 ******************************Gaussian NBO Version 3.1******************************
       /RESON  / : Allow strongly delocalized NBO set

 Analyzing the SCF density

 Job title: File created by ccinput                                         

 Storage needed:      3658 in NPA,      4765 in NBO ( 262143825 available)
 GSVD:  LWork=         364 too small for GESVD, short by        1166 words or        1166 for optimal perf.


 NATURAL POPULATIONS:  Natural atomic orbital occupancies 
                                                          
   NAO  Atom  No  lang   Type(AO)    Occupancy      Energy
 ----------------------------------------------------------
     1    C    1  S      Cor( 1S)     1.99953     -10.53357
     2    C    1  S      Val( 2S)     1.23160      -0.37109
     3    C    1  S      Ryd( 3S)     0.00006       0.54441
     4    C    1  px     Val( 2p)     0.82711      -0.17068
     5    C    1  px     Ryd( 3p)     0.01236       0.51967
     6    C    1  py     Val( 2p)     1.15711      -0.08320
     7    C    1  py     Ryd( 3p)     0.00221       0.55235
     8    C    1  pz     Val( 2p)     1.15711      -0.08321
     9    C    1  pz     Ryd( 3p)     0.00221       0.55235
    10    C    1  dxy    Ryd( 3d)     0.00000       1.89579
    11    C    1  dxz    Ryd( 3d)     0.00000       1.89577
    12    C    1  dyz    Ryd( 3d)     0.00059       2.46168
    13    C    1  dx2y2  Ryd( 3d)     0.00031       2.23590
    14    C    1  dz2    Ryd( 3d)     0.00049       2.38640

    15    H    2  S      Val( 1S)     1.15986      -0.19215
    16    H    2  S      Ryd( 2S)     0.00000       0.53190
    17    H    2  px     Ryd( 2p)     0.00000       1.45076
    18    H    2  py     Ryd( 2p)     0.00000       1.45082
    19    H    2  pz     Ryd( 2p)     0.00000       1.45082

    20    H    3  S      Val( 1S)     0.81512       0.03679
    21    H    3  S      Ryd( 2S)     0.00024       0.31635
    22    H    3  px     Ryd( 2p)     0.00019       1.60493
    23    H    3  py     Ryd( 2p)     0.00059       2.15458
    24    H    3  pz     Ryd( 2p)     0.00033       1.94316

    25    H    4  S      Val( 1S)     0.81513       0.03678
    26    H    4  S      Ryd( 2S)     0.00024       0.31635
    27    H    4  px     Ryd( 2p)     0.00019       1.60495
    28    H    4  py     Ryd( 2p)     0.00071       2.25196
    29    H    4  pz     Ryd( 2p)     0.00021       1.84574

    30    H    5  S      Val( 1S)     0.81513       0.03678
    31    H    5  S      Ryd( 2S)     0.00024       0.31635
    32    H    5  px     Ryd( 2p)     0.00019       1.60494
    33    H    5  py     Ryd( 2p)     0.00008       1.74009
    34    H    5  pz     Ryd( 2p)     0.00084       2.35764


 Summary of Natural Population Analysis:                  
                                                          
                                       Natural Population 
                Natural  -----------------------------------------------
    Atom  No    Charge         Core      Valence    Rydberg      Total
 -----------------------------------------------------------------------
      C    1   -0.39069      1.99953     4.37292    0.01824     6.39069
      H    2   -0.15986      0.00000     1.15986    0.00000     1.15986
      H    3    0.18352      0.00000     0.81512    0.00136     0.81648
      H    4    0.18352      0.00000     0.81513    0.00136     0.81648
      H    5    0.18351      0.00000     0.81513    0.00136     0.81649
 =======================================================================
   * Total *   -0.00000      1.99953     7.97816    0.02231    10.00000

                                 Natural Population      
 --------------------------------------------------------
   Core                       1.99953 ( 99.9763% of   2)
   Valence                    7.97816 ( 99.7270% of   8)
   Natural Minimal Basis      9.97769 ( 99.7769% of  10)
   Natural Rydberg Basis      0.02231 (  0.2231% of  10)
 --------------------------------------------------------

    Atom  No          Natural Electron Configuration
 ----------------------------------------------------------------------------
      C    1      [core]2S( 1.23)2p( 3.14)3p( 0.02)
      H    2            1S( 1.16)
      H    3            1S( 0.82)
      H    4            1S( 0.82)
      H    5            1S( 0.82)


 NATURAL BOND ORBITAL ANALYSIS:

                       Occupancies       Lewis Structure    Low   High
           Occ.    -------------------  -----------------   occ   occ
  Cycle   Thresh.   Lewis   Non-Lewis     CR  BD  3C  LP    (L)   (NL)   Dev
 =============================================================================
   1(1)    1.90     9.99647   0.00353      1   4   0   0     0      0    0.00
 -----------------------------------------------------------------------------

 Structure accepted: No low occupancy Lewis orbitals

 --------------------------------------------------------
   Core                      1.99953 ( 99.976% of   2)
   Valence Lewis             7.99695 ( 99.962% of   8)
  ==================       ============================
   Total Lewis               9.99647 ( 99.965% of  10)
  -----------------------------------------------------
   Valence non-Lewis         0.00181 (  0.018% of  10)
   Rydberg non-Lewis         0.00171 (  0.017% of  10)
  ==================       ============================
   Total non-Lewis           0.00353 (  0.035% of  10)
 --------------------------------------------------------


       (Occupancy)   Bond orbital/ Coefficients/ Hybrids
 ---------------------------------------------------------------------------------
     1. (1.99939) BD ( 1) C   1 - H   2  
                ( 41.99%)   0.6480* C   1 s(  0.05%)p99.99( 99.95%)d 0.00(  0.00%)
                                           -0.0000  0.0196 -0.0086 -0.9924  0.1213
                                           -0.0006  0.0001 -0.0002  0.0000  0.0000
                                            0.0000 -0.0000  0.0005 -0.0003
                ( 58.01%)   0.7616* H   2 s(100.00%)p 0.00(  0.00%)
                                            1.0000 -0.0000  0.0015  0.0000  0.0000
     2. (1.99918) BD ( 1) C   1 - H   3  
                ( 59.21%)   0.7695* C   1 s( 33.32%)p 2.00( 66.65%)d 0.00(  0.04%)
                                            0.0001  0.5772  0.0001  0.0108 -0.0006
                                            0.6667  0.0291  0.4696  0.0205  0.0009
                                            0.0006  0.0173 -0.0098 -0.0015
                ( 40.79%)   0.6387* H   3 s( 99.90%)p 0.00(  0.10%)
                                            0.9995 -0.0004  0.0002 -0.0257 -0.0181
     3. (1.99918) BD ( 1) C   1 - H   4  
                ( 59.21%)   0.7695* C   1 s( 33.32%)p 2.00( 66.64%)d 0.00(  0.04%)
                                            0.0001  0.5772  0.0001  0.0117 -0.0005
                                           -0.7401 -0.0323  0.3426  0.0150 -0.0010
                                            0.0005 -0.0140 -0.0126 -0.0064
                ( 40.79%)   0.6387* H   4 s( 99.90%)p 0.00(  0.10%)
                                            0.9995 -0.0004  0.0001  0.0285 -0.0132
     4. (1.99918) BD ( 1) C   1 - H   5  
                ( 59.21%)   0.7694* C   1 s( 33.31%)p 2.00( 66.65%)d 0.00(  0.04%)
                                            0.0001  0.5772  0.0001  0.0114 -0.0006
                                            0.0734  0.0032 -0.8122 -0.0355  0.0001
                                           -0.0011 -0.0033  0.0023  0.0195
                ( 40.79%)   0.6387* H   5 s( 99.90%)p 0.00(  0.10%)
                                            0.9995 -0.0004  0.0001 -0.0028  0.0313
     5. (1.99953) CR ( 1) C   1           s(100.00%)
                                            1.0000 -0.0001 -0.0000 -0.0000  0.0000
                                           -0.0000  0.0000  0.0000  0.0000  0.0000
                                            0.0000 -0.0000  0.0000 -0.0000
     6. (0.00000) RY*( 1) C   1           s( 99.99%)p 0.00(  0.01%)
     7. (0.00000) RY*( 2) C   1           s(  0.00%)p 1.00(100.00%)
     8. (0.00000) RY*( 3) C   1           s(  0.00%)p 1.00(100.00%)d 0.00(  0.00%)
     9. (0.00000) RY*( 4) C   1           s(  0.00%)p 1.00(100.00%)d 0.00(  0.00%)
    10. (0.00000) RY*( 5) C   1           s(  0.00%)p 0.00(  0.00%)d 1.00(100.00%)
    11. (0.00000) RY*( 6) C   1           s(  0.00%)p 0.00(  0.00%)d 1.00(100.00%)
    12. (0.00000) RY*( 7) C   1           s(  0.00%)p 1.00(  0.05%)d99.99( 99.95%)
    13. (0.00000) RY*( 8) C   1           s(  0.01%)p 0.94(  0.01%)d99.99( 99.97%)
    14. (0.00000) RY*( 9) C   1           s(  0.00%)p 1.00(  0.04%)d99.99( 99.96%)
    15. (0.00000) RY*( 1) H   2           s(100.00%)
    16. (0.00000) RY*( 2) H   2           s(  0.00%)p 1.00(100.00%)
    17. (0.00000) RY*( 3) H   2           s(  0.00%)p 1.00(100.00%)
    18. (0.00000) RY*( 4) H   2           s(  0.00%)p 1.00(100.00%)
    19. (0.00030) RY*( 1) H   3           s( 76.31%)p 0.31( 23.69%)
                                            0.0133  0.8735 -0.2612  0.3356  0.2367
    20. (0.00019) RY*( 2) H   3           s(  4.19%)p22.88( 95.81%)
                                            0.0055  0.2046  0.9627  0.1447  0.1018
    21. (0.00008) RY*( 3) H   3           s(  0.00%)p 1.00(100.00%)
    22. (0.00001) RY*( 4) H   3           s( 19.60%)p 4.10( 80.40%)
    23. (0.00030) RY*( 1) H   4           s( 76.34%)p 0.31( 23.66%)
                                            0.0133  0.8736 -0.2599 -0.3732  0.1727
    24. (0.00019) RY*( 2) H   4           s(  4.16%)p23.03( 95.84%)
                                            0.0055  0.2039  0.9632 -0.1588  0.0740
    25. (0.00008) RY*( 3) H   4           s(  0.00%)p 1.00(100.00%)
    26. (0.00001) RY*( 4) H   4           s( 19.60%)p 4.10( 80.40%)
    27. (0.00030) RY*( 1) H   5           s( 76.34%)p 0.31( 23.66%)
                                            0.0133  0.8736 -0.2602  0.0368 -0.4094
    28. (0.00019) RY*( 2) H   5           s(  4.17%)p23.00( 95.83%)
                                            0.0055  0.2040  0.9630  0.0164 -0.1750
    29. (0.00008) RY*( 3) H   5           s(  0.00%)p 1.00(100.00%)
    30. (0.00001) RY*( 4) H   5           s( 19.60%)p 4.10( 80.40%)
    31. (0.00001) BD*( 1) C   1 - H   2  
                ( 58.01%)   0.7616* C   1 s(  0.05%)p99.99( 99.95%)d 0.00(  0.00%)
                ( 41.99%)  -0.6480* H   2 s(100.00%)p 0.00(  0.00%)
    32. (0.00060) BD*( 1) C   1 - H   3  
                ( 40.79%)   0.6387* C   1 s( 33.32%)p 2.00( 66.65%)d 0.00(  0.04%)
                                           -0.0001 -0.5772 -0.0001 -0.0108  0.0006
                                           -0.6667 -0.0291 -0.4696 -0.0205 -0.0009
                                           -0.0006 -0.0173  0.0098  0.0015
                ( 59.21%)  -0.7695* H   3 s( 99.90%)p 0.00(  0.10%)
                                           -0.9995  0.0004 -0.0002  0.0257  0.0181
    33. (0.00060) BD*( 1) C   1 - H   4  
                ( 40.79%)   0.6387* C   1 s( 33.32%)p 2.00( 66.64%)d 0.00(  0.04%)
                                           -0.0001 -0.5772 -0.0001 -0.0117  0.0005
                                            0.7401  0.0323 -0.3426 -0.0150  0.0010
                                           -0.0005  0.0140  0.0126  0.0064
                ( 59.21%)  -0.7695* H   4 s( 99.90%)p 0.00(  0.10%)
                                           -0.9995  0.0004 -0.0001 -0.0285  0.0132
    34. (0.00060) BD*( 1) C   1 - H   5  
                ( 40.79%)   0.6387* C   1 s( 33.31%)p 2.00( 66.65%)d 0.00(  0.04%)
                                           -0.0001 -0.5772 -0.0001 -0.0114  0.0006
                                           -0.0734 -0.0032  0.8122  0.0355 -0.0001
                                            0.0011  0.0033 -0.0023 -0.0195
                ( 59.21%)  -0.7694* H   5 s( 99.90%)p 0.00(  0.10%)
                                           -0.9995  0.0004 -0.0001  0.0028 -0.0313


 NHO Directionality and "Bond Bending" (deviations from line of nuclear centers)

         [Thresholds for printing:  angular deviation  >  1.0 degree]
                                    hybrid p-character > 25.0%
                                    orbital occupancy  >  0.10e

                                Line of Centers        Hybrid 1              Hybrid 2
                                ---------------  -------------------   ------------------
                NBO               Theta   Phi    Theta   Phi    Dev    Theta   Phi    Dev
 ========================================================================================
    None exceeding thresholds


 Second Order Perturbation Theory Analysis of Fock Matrix in NBO Basis

     Threshold for printing:   0.50 kcal/mol
                                                                              E(2)  E(j)-E(i) F(i,j)
         Donor NBO (i)                     Acceptor NBO (j)                 kcal/mol   a.u.    a.u. 
 ===================================================================================================

 within unit  1
   5. CR (   1) C   1                / 19. RY*(   1) H   3                    0.88   11.34    0.089
   5. CR (   1) C   1                / 23. RY*(   1) H   4                    0.88   11.34    0.089
   5. CR (   1) C   1                / 27. RY*(   1) H   5                    0.88   11.34    0.089


 Natural Bond Orbitals (Summary):

                                                            Principal Delocalizations
           NBO                        Occupancy    Energy   (geminal,vicinal,remote)
 ====================================================================================
 Molecular unit  1  (CH4)
     1. BD (   1) C   1 - H   2          1.99939    -0.21752   
     2. BD (   1) C   1 - H   3          1.99918    -0.64087   
     3. BD (   1) C   1 - H   4          1.99918    -0.64087   
     4. BD (   1) C   1 - H   5          1.99918    -0.64086   
     5. CR (   1) C   1                  1.99953   -10.53341  23(v),27(v),19(v)
     6. RY*(   1) C   1                  0.00000     0.54435   
     7. RY*(   2) C   1                  0.00000     0.52983   
     8. RY*(   3) C   1                  0.00000     0.54646   
     9. RY*(   4) C   1                  0.00000     0.54645   
    10. RY*(   5) C   1                  0.00000     1.89578   
    11. RY*(   6) C   1                  0.00000     1.89576   
    12. RY*(   7) C   1                  0.00000     2.45630   
    13. RY*(   8) C   1                  0.00000     2.23260   
    14. RY*(   9) C   1                  0.00000     2.38174   
    15. RY*(   1) H   2                  0.00000     0.53190   
    16. RY*(   2) H   2                  0.00000     1.45076   
    17. RY*(   3) H   2                  0.00000     1.45082   
    18. RY*(   4) H   2                  0.00000     1.45082   
    19. RY*(   1) H   3                  0.00030     0.80820   
    20. RY*(   2) H   3                  0.00019     1.58495   
    21. RY*(   3) H   3                  0.00008     1.73499   
    22. RY*(   4) H   3                  0.00001     1.88292   
    23. RY*(   1) H   4                  0.00030     0.80807   
    24. RY*(   2) H   4                  0.00019     1.58506   
    25. RY*(   3) H   4                  0.00008     1.73499   
    26. RY*(   4) H   4                  0.00001     1.88292   
    27. RY*(   1) H   5                  0.00030     0.80802   
    28. RY*(   2) H   5                  0.00019     1.58505   
    29. RY*(   3) H   5                  0.00008     1.73501   
    30. RY*(   4) H   5                  0.00001     1.88299   
    31. BD*(   1) C   1 - H   2          0.00001    -0.15554   
    32. BD*(   1) C   1 - H   3          0.00060     0.51481   
    33. BD*(   1) C   1 - H   4          0.00060     0.51481   
    34. BD*(   1) C   1 - H   5          0.00060     0.51480   
       -------------------------------
              Total Lewis    9.99647  ( 99.9647%)
        Valence non-Lewis    0.00181  (  0.0181%)
        Rydberg non-Lewis    0.00171  (  0.0171%)
       -------------------------------
            Total unit  1   10.00000  (100.0000%)
           Charge unit  1    0.00000
 Leave Link  607 at Sun May 29 14:25:32 2022, MaxMem=   262144000 cpu:               1.3 elap:               0.3
 (Enter /binaries/g16/l9999.exe)
 Unable to Open any file for archive entry.
 1\1\GINC-WEB\Scan\RM062X\def2SVP\C1H4\CALCUS\29-May-2022\0\\#p opt(mod
 redundant) M062X/Def2SVP pop(nbo)\\File created by ccinput\\0,1\C,3.96
 37840592,4.5867114814,-0.0029057826\H,5.6203803333,-0.0990771734,0.002
 6384199\H,4.4726954241,4.7844132274,0.9391306316\H,4.4703820511,4.7825
 780556,-0.9465728933\H,2.9318581323,4.239374409,-0.0012903755\\Version
 =ES64L-G16RevC.01\State=1-A\HF=-40.4496872,-40.4057447,-40.3388664,-40
 .2856256,-40.246185,-40.2175678,-40.1968943,-40.182087,-40.1716746,-40
 .1641698,-40.1588621\RMSD=9.778e-09,6.037e-09,1.044e-09,2.748e-09,3.36
 8e-09,2.328e-09,1.167e-09,2.341e-09,7.635e-10,8.895e-09,8.763e-09\PG=C
 01 [X(C1H4)]\\@
 The archive entry for this job was punched.


 Cherishing children is the mark of a civilized society.
 -- Joan Ganz Cooney
 Job cpu time:       0 days  0 hours  2 minutes 31.1 seconds.
 Elapsed time:       0 days  0 hours  0 minutes 38.2 seconds.
 File lengths (MBytes):  RWF=      6 Int=      0 D2E=      0 Chk=      2 Scr=      1
 Normal termination of Gaussian 16 at Sun May 29 14:25:33 2022.
