4
 energy: -2.991681254793 gnorm: 0.060036334639 xtb: 6.4.1 (afa7bdf)
C        -2.90770000000000    1.66310000000000    0.00000000000000
H        -2.55100000000000    2.16750000000000    0.87370000000000
H        -3.97770000000000    1.66310000000000    0.00000000000000
H        -2.55100000000000    2.16750000000000   -0.87370000000000
4
 energy: -3.008594323896 gnorm: 0.053425538009 xtb: 6.4.1 (afa7bdf)
C        -2.93473771188169    1.74370916249194    0.00000000654889
H        -2.51518087527002    2.14993587478650    0.94181327447166
H        -4.02230053913881    1.61761908454783   -0.00000000068167
H        -2.51518087370947    2.14993587817374   -0.94181328033888
4
 energy: -2.969774548186 gnorm: 0.120856865413 xtb: 6.4.1 (afa7bdf)
C        -3.03431730608418    2.02991179195093    0.00000009657798
H        -2.39002889185747    2.08685900218962    1.15530337607961
H        -4.17302493610675    1.45757015269503   -0.00000000828164
H        -2.39002886595160    2.08685905316441   -1.15530346437594
4
 energy: -3.010697144466 gnorm: 0.061873642304 xtb: 6.4.1 (afa7bdf)
C        -2.98254051889342    1.87971112863042    0.00000006771227
H        -2.45892785042574    2.11882418694479    1.04086721067841
H        -4.08700381010901    1.54384045760756    0.00000000135305
H        -2.45892782057183    2.11882422681723   -1.04086727974373
4
 energy: -3.014880715811 gnorm: 0.043075208449 xtb: 6.4.1 (afa7bdf)
C        -2.96275105878092    1.82219297712596    0.00000007190988
H        -2.48893665766107    2.12978358092313    0.99116276867633
H        -4.04677564836735    1.57943982194826   -0.00000000421803
H        -2.48893663519066    2.12978362000265   -0.99116283636818
4
 energy: -3.015356548116 gnorm: 0.040633260151 xtb: 6.4.1 (afa7bdf)
C        -2.96474838154256    1.82700573981352    0.00000006349179
H        -2.48729991613390    2.12855749764599    0.98843630689344
H        -4.04805179639507    1.57707923379602   -0.00000000962434
H        -2.48729990592848    2.12855752874447   -0.98843636076089
4
 energy: -3.019149605509 gnorm: 0.009902994310 xtb: 6.4.1 (afa7bdf)
C        -2.99036718830987    1.89536453330075   -0.00000004840323
H        -2.47401789581544    2.10761934042530    0.94944824103216
H        -4.04899693139827    1.55059683815156   -0.00000004219363
H        -2.47401798447641    2.10761928812239   -0.94944815043530
4
 energy: -3.019323379099 gnorm: 0.004819108098 xtb: 6.4.1 (afa7bdf)
C        -2.99599331957237    1.91051670803118   -0.00000002790694
H        -2.47375306724024    2.10203103154607    0.95217222259803
H        -4.04390051003505    1.54662125365620   -0.00000001501506
H        -2.47375310315234    2.10203100676656   -0.95217217967603
4
 energy: -3.019358674339 gnorm: 0.000580195661 xtb: 6.4.1 (afa7bdf)
C        -2.99750493628270    1.91544442069058   -0.00000000651107
H        -2.47634478819189    2.09926689267371    0.95358697055245
H        -4.03720549358418    1.54722179457126    0.00000000545574
H        -2.47634478194123    2.09926689206445   -0.95358696949712
4
 energy: -3.019359422296 gnorm: 0.000471529797 xtb: 6.4.1 (afa7bdf)
C        -2.99709192337896    1.91537607962171   -0.00000000208093
H        -2.47697630210003    2.09906925160570    0.95520503966758
H        -4.03635548330511    1.54768541421987    0.00000000718563
H        -2.47697629121589    2.09906925455272   -0.95520504477228
