4
 energy: -2.991681267805 gnorm: 0.060036256375 xtb: 6.5.1 (579679a)
C           -2.90770000000000        1.66310000000000        0.00000000000000
H           -2.55100000000000        2.16750000000000        0.87370000000000
H           -3.97770000000000        1.66310000000000        0.00000000000000
H           -2.55100000000000        2.16750000000000       -0.87370000000000
4
 energy: -3.008594339589 gnorm: 0.053425513079 xtb: 6.5.1 (579679a)
C           -2.93473774555671        1.74370929602261       -0.00000000654877
H           -2.51518086842830        2.14993582996800        0.94181328453237
H           -4.02230051602616        1.61761904742857        0.00000000068165
H           -2.51518086998883        2.14993582658082       -0.94181327866524
4
 energy: -2.969773832395 gnorm: 0.120857532092 xtb: 6.5.1 (579679a)
C           -3.03431788124566        2.02991375481054        0.00000004368816
H           -2.39002813677051        2.08685854454029        1.15530453519910
H           -4.17302585547809        1.45756913356390       -0.00000000463674
H           -2.39002812650574        2.08685856708526       -1.15530457425053
4
 energy: -3.010697016827 gnorm: 0.061874000751 xtb: 6.5.1 (579679a)
C           -2.98254084493508        1.87971230924233       -0.00000000495898
H           -2.45892740359210        2.11882391793310        1.04086796266319
H           -4.08700434805051        1.54383985697857        0.00000000134381
H           -2.45892740342231        2.11882391584600       -1.04086795904802
4
 energy: -3.014880717883 gnorm: 0.043075187476 xtb: 6.5.1 (579679a)
C           -2.96275101166977        1.82219303765424       -0.00000000531157
H           -2.48893671446373        2.12978355486089        0.99116275388900
H           -4.04677555086707        1.57943985794151       -0.00000000389921
H           -2.48893672299942        2.12978354954337       -0.99116274467823
4
 energy: -3.015356547582 gnorm: 0.040633268233 xtb: 6.5.1 (579679a)
C           -2.96474836623950        1.82700584147068        0.00000001703420
H           -2.48729991468484        2.12855747009526        0.98843632095215
H           -4.04805180292010        1.57707921148336       -0.00000000515951
H           -2.48729991615556        2.12855747695070       -0.98843633282684
4
 energy: -3.019149596554 gnorm: 0.009903204158 xtb: 6.5.1 (579679a)
C           -2.99036720995107        1.89536423713012        0.00000020278384
H           -2.47401771037991        2.10761946266716        0.94944796963855
H           -4.04899735360452        1.55059675528019       -0.00000006030463
H           -2.47401772606449        2.10761954492253       -0.94944811211776
4
 energy: -3.019323376872 gnorm: 0.004819226793 xtb: 6.5.1 (579679a)
C           -2.99599331953600        1.91051648901293        0.00000012369009
H           -2.47375297726663        2.10203111266660        0.95217193293868
H           -4.04390064084221        1.54662126218148       -0.00000008303224
H           -2.47375306235516        2.10203113613898       -0.95217197359652
4
 energy: -3.019358674327 gnorm: 0.000580182278 xtb: 6.5.1 (579679a)
C           -2.99750496073468        1.91544440304830        0.00000004011299
H           -2.47634476956081        2.09926689578275        0.95358687740500
H           -4.03720542205098        1.54722181562738       -0.00000005785233
H           -2.47634484765354        2.09926688554157       -0.95358685966566
4
 energy: -3.019359422293 gnorm: 0.000471534764 xtb: 6.5.1 (579679a)
C           -2.99709193024194        1.91537608685970        0.00000000702363
H           -2.47697633378675        2.09906923571787        0.95520495511144
H           -4.03635538067587        1.54768544626775       -0.00000001492778
H           -2.47697635529544        2.09906923115468       -0.95520494720728
