
                                 *****************
                                 * O   R   C   A *
                                 *****************

                                            #,                                       
                                            ###                                      
                                            ####                                     
                                            #####                                    
                                            ######                                   
                                           ########,                                 
                                     ,,################,,,,,                         
                               ,,#################################,,                 
                          ,,##########################################,,             
                       ,#########################################, ''#####,          
                    ,#############################################,,   '####,        
                  ,##################################################,,,,####,       
                ,###########''''           ''''###############################       
              ,#####''   ,,,,##########,,,,          '''####'''          '####       
            ,##' ,,,,###########################,,,                        '##       
           ' ,,###''''                  '''############,,,                           
         ,,##''                                '''############,,,,        ,,,,,,###''
      ,#''                                            '''#######################'''  
     '                                                          ''''####''''         
             ,#######,   #######,   ,#######,      ##                                
            ,#'     '#,  ##    ##  ,#'     '#,    #''#        ######   ,####,        
            ##       ##  ##   ,#'  ##            #'  '#       #        #'  '#        
            ##       ##  #######   ##           ,######,      #####,   #    #        
            '#,     ,#'  ##    ##  '#,     ,#' ,#      #,         ##   #,  ,#        
             '#######'   ##     ##  '#######'  #'      '#     #####' # '####'        



                  #######################################################
                  #                        -***-                        #
                  #          Department of theory and spectroscopy      #
                  #    Directorship and core code : Frank Neese         #
                  #        Max Planck Institute fuer Kohlenforschung    #
                  #                Kaiser Wilhelm Platz 1               #
                  #                 D-45470 Muelheim/Ruhr               #
                  #                      Germany                        #
                  #                                                     #
                  #                  All rights reserved                #
                  #                        -***-                        #
                  #######################################################


                         Program Version 5.0.3 -  RELEASE  -


 With contributions from (in alphabetic order):
   Daniel Aravena         : Magnetic Suceptibility
   Michael Atanasov       : Ab Initio Ligand Field Theory (pilot matlab implementation)
   Alexander A. Auer      : GIAO ZORA, VPT2 properties, NMR spectrum
   Ute Becker             : Parallelization
   Giovanni Bistoni       : ED, misc. LED, open-shell LED, HFLD
   Martin Brehm           : Molecular dynamics
   Dmytro Bykov           : SCF Hessian
   Vijay G. Chilkuri      : MRCI spin determinant printing, contributions to CSF-ICE
   Dipayan Datta          : RHF DLPNO-CCSD density
   Achintya Kumar Dutta   : EOM-CC, STEOM-CC
   Dmitry Ganyushin       : Spin-Orbit,Spin-Spin,Magnetic field MRCI
   Miquel Garcia          : C-PCM and meta-GGA Hessian, CC/C-PCM, Gaussian charge scheme
   Yang Guo               : DLPNO-NEVPT2, F12-NEVPT2, CIM, IAO-localization
   Andreas Hansen         : Spin unrestricted coupled pair/coupled cluster methods
   Benjamin Helmich-Paris : MC-RPA, TRAH-SCF, COSX integrals
   Lee Huntington         : MR-EOM, pCC
   Robert Izsak           : Overlap fitted RIJCOSX, COSX-SCS-MP3, EOM
   Marcus Kettner         : VPT2
   Christian Kollmar      : KDIIS, OOCD, Brueckner-CCSD(T), CCSD density, CASPT2, CASPT2-K
   Simone Kossmann        : Meta GGA functionals, TD-DFT gradient, OOMP2, MP2 Hessian
   Martin Krupicka        : Initial AUTO-CI
   Lucas Lang             : DCDCAS
   Marvin Lechner         : AUTO-CI (C++ implementation), FIC-MRCC
   Dagmar Lenk            : GEPOL surface, SMD
   Dimitrios Liakos       : Extrapolation schemes; Compound Job, initial MDCI parallelization
   Dimitrios Manganas     : Further ROCIS development; embedding schemes
   Dimitrios Pantazis     : SARC Basis sets
   Anastasios Papadopoulos: AUTO-CI, single reference methods and gradients
   Taras Petrenko         : DFT Hessian,TD-DFT gradient, ASA, ECA, R-Raman, ABS, FL, XAS/XES, NRVS
   Peter Pinski           : DLPNO-MP2, DLPNO-MP2 Gradient
   Christoph Reimann      : Effective Core Potentials
   Marius Retegan         : Local ZFS, SOC
   Christoph Riplinger    : Optimizer, TS searches, QM/MM, DLPNO-CCSD(T), (RO)-DLPNO pert. Triples
   Tobias Risthaus        : Range-separated hybrids, TD-DFT gradient, RPA, STAB
   Michael Roemelt        : Original ROCIS implementation
   Masaaki Saitow         : Open-shell DLPNO-CCSD energy and density
   Barbara Sandhoefer     : DKH picture change effects
   Avijit Sen             : IP-ROCIS
   Kantharuban Sivalingam : CASSCF convergence, NEVPT2, FIC-MRCI
   Bernardo de Souza      : ESD, SOC TD-DFT
   Georgi Stoychev        : AutoAux, RI-MP2 NMR, DLPNO-MP2 response
   Willem Van den Heuvel  : Paramagnetic NMR
   Boris Wezisla          : Elementary symmetry handling
   Frank Wennmohs         : Technical directorship


 We gratefully acknowledge several colleagues who have allowed us to
 interface, adapt or use parts of their codes:
   Stefan Grimme, W. Hujo, H. Kruse, P. Pracht,  : VdW corrections, initial TS optimization,
                  C. Bannwarth, S. Ehlert          DFT functionals, gCP, sTDA/sTD-DF
   Ed Valeev, F. Pavosevic, A. Kumar             : LibInt (2-el integral package), F12 methods
   Garnet Chan, S. Sharma, J. Yang, R. Olivares  : DMRG
   Ulf Ekstrom                                   : XCFun DFT Library
   Mihaly Kallay                                 : mrcc  (arbitrary order and MRCC methods)
   Jiri Pittner, Ondrej Demel                    : Mk-CCSD
   Frank Weinhold                                : gennbo (NPA and NBO analysis)
   Christopher J. Cramer and Donald G. Truhlar   : smd solvation model
   Lars Goerigk                                  : TD-DFT with DH, B97 family of functionals
   V. Asgeirsson, H. Jonsson                     : NEB implementation
   FAccTs GmbH                                   : IRC, NEB, NEB-TS, DLPNO-Multilevel, CI-OPT
                                                   MM, QMMM, 2- and 3-layer-ONIOM, Crystal-QMMM,
                                                   LR-CPCM, SF, NACMEs, symmetry and pop. for TD-DFT,
                                                   nearIR, NL-DFT gradient (VV10), updates on ESD,
                                                   ML-optimized integration grids
   S Lehtola, MJT Oliveira, MAL Marques          : LibXC Library
   Liviu Ungur et al                             : ANISO software


 Your calculation uses the libint2 library for the computation of 2-el integrals
 For citations please refer to: http://libint.valeyev.net

 Your ORCA version has been built with support for libXC version: 5.1.0
 For citations please refer to: https://tddft.org/programs/libxc/

 This ORCA versions uses:
   CBLAS   interface :  Fast vector & matrix operations
   LAPACKE interface :  Fast linear algebra routines
   SCALAPACK package :  Parallel linear algebra routines
   Shared memory     :  Shared parallel matrices
   BLAS/LAPACK       :  OpenBLAS 0.3.15  USE64BITINT DYNAMIC_ARCH NO_AFFINITY Zen SINGLE_THREADED
        Core in use  :  Zen
   Copyright (c) 2011-2014, The OpenBLAS Project


leaving
================================================================================

----- Orbital basis set information -----
================================================================================
                                        WARNINGS
                       Please study these warnings very carefully!
================================================================================


WARNING: Direct SCF is incompatible with Method<>HF and Method<>DFT
  ===> : conventional SCF is chosen

WARNING: The NDO methods need Guess=HUECKEL or Guess=HCORE or Guess=MOREAD
  ===> : Guess is set to Hueckel

WARNING: The NDO methods need %rel::SOCType==1
  ===> : %rel::SOCType is set to 1

WARNING: The NDO methods cannot have frozencore=1
  ===> : %method FrozenCore=0 end

WARNING: The NDO methods cannot be used with Shark
  ===> : Turning Shark off

WARNING: Geometry Optimization
  ===> : Switching off AutoStart
         For restart on a previous wavefunction, please use MOREAD
================================================================================
                                       INPUT FILE
================================================================================
NAME = calc.inp
|  1> !OPT AM1
|  2> *xyz 0 1
|  3> C    4.29180000   3.65880000   0.00000000
|  4> H    4.64850000   2.65000000   0.00000000
|  5> H    4.64850000   4.16320000   0.87070000
|  6> H    4.64850000   4.16320000  -0.87970000
|  7> H    3.22180000   3.65880000   0.00000000
|  8> *
|  9> %geom Constraints
| 10> { A 0 1 2 C }
| 11> end
| 12> end
| 13> %MaxCore 2000
| 14> %pal
| 15> nprocs 1
| 16> endd                         ****END OF INPUT****
================================================================================

                       *****************************
                       * Geometry Optimization Run *
                       *****************************

Geometry optimization settings:
Update method            Update   .... BFGS
Choice of coordinates    CoordSys .... Z-matrix Internals
Initial Hessian          InHess   .... Almoef's Model

Convergence Tolerances:
Energy Change            TolE     ....  5.0000e-06 Eh
Max. Gradient            TolMAXG  ....  3.0000e-04 Eh/bohr
RMS Gradient             TolRMSG  ....  1.0000e-04 Eh/bohr
Max. Displacement        TolMAXD  ....  4.0000e-03 bohr
RMS Displacement         TolRMSD  ....  2.0000e-03 bohr
Strict Convergence                ....  False
------------------------------------------------------------------------------
                        ORCA OPTIMIZATION COORDINATE SETUP
------------------------------------------------------------------------------

The optimization will be done in new redundant internal coordinates
Making redundant internal coordinates   ...  (new redundants) done
Evaluating the initial hessian          ...  (Almloef) done
Evaluating the coordinates              ...  done
Calculating the B-matrix                .... done
Calculating the G-matrix                .... done
Diagonalizing the G-matrix              .... done
Imposing constraints:
 Iter   0:  RMS(Cart)=    0.0000000000 RMS(Int)=    0.0000000000
CONVERGED
The first mode is                       ....    2
The number of degrees of freedom        ....    9
Storing new coordinates                 .... done

    -----------------------------------------------------------------
                    Redundant Internal Coordinates


    -----------------------------------------------------------------
         Definition                    Initial Value    Approx d2E/dq
    -----------------------------------------------------------------
      1. B(H   1,C   0)                  1.0700         0.387545   
      2. B(H   2,C   0)                  1.0676         0.390984   
      3. B(H   3,C   0)                  1.0750         0.380564   
      4. B(H   4,C   0)                  1.0700         0.387554   
      5. A(H   2,C   0,H   3)          109.5644         0.297222   
      6. A(H   1,C   0,H   3)          109.3762         0.296807   
      7. A(H   2,C   0,H   4)          109.5186         0.298082   
      8. A(H   3,C   0,H   4)          109.3798         0.296808   
      9. A(H   1,C   0,H   2)          109.5151         0.298081   
     10. A(H   1,C   0,H   4)          109.4730         0.297664   
     11. A(C   0,H   1,H   2)           35.1969         0.154431 C 
    -----------------------------------------------------------------

Number of atoms                         .... 5
Number of degrees of freedom            .... 11

         *************************************************************
         *                GEOMETRY OPTIMIZATION CYCLE   1            *
         *************************************************************
---------------------------------
CARTESIAN COORDINATES (ANGSTROEM)
---------------------------------
  C      4.291800    3.658800    0.000000
  H      4.648500    2.650000    0.000000
  H      4.648500    4.163200    0.870700
  H      4.648500    4.163200   -0.879700
  H      3.221800    3.658800    0.000000

----------------------------
CARTESIAN COORDINATES (A.U.)
----------------------------
  NO LB      ZA    FRAG     MASS         X           Y           Z
   0 C     4.0000    0    12.011    8.110327    6.914130    0.000000
   1 H     1.0000    0     1.008    8.784392    5.007774    0.000000
   2 H     1.0000    0     1.008    8.784392    7.867308    1.645385
   3 H     1.0000    0     1.008    8.784392    7.867308   -1.662392
   4 H     1.0000    0     1.008    6.088320    6.914130    0.000000

--------------------------------
INTERNAL COORDINATES (ANGSTROEM)
--------------------------------
 C      0   0   0     0.000000000000     0.00000000     0.00000000
 H      1   0   0     1.070005761667     0.00000000     0.00000000
 H      1   2   0     1.067601395653   109.51505982     0.00000000
 H      1   2   3     1.074954110648   109.37622264   120.08276913
 H      1   2   3     1.070000000000   109.47300474   239.91392657

---------------------------
INTERNAL COORDINATES (A.U.)
---------------------------
 C      0   0   0     0.000000000000     0.00000000     0.00000000
 H      1   0   0     2.022017851268     0.00000000     0.00000000
 H      1   2   0     2.017474257976   109.51505982     0.00000000
 H      1   2   3     2.031368875658   109.37622264   120.08276913
 H      1   2   3     2.022006963296   109.47300474   239.91392657

----------------------------
SLATER BASIS SET DIM=   8
----------------------------
  0 C     2 shells
 l=0 nsto= 1
    2       1.808665000000        1.000000000000
 l=1 nsto= 1
    2       1.685116000000        1.000000000000
  1 H     1 shells
 l=0 nsto= 1
    1       1.188078000000        1.000000000000
  2 H     1 shells
 l=0 nsto= 1
    1       1.188078000000        1.000000000000
  3 H     1 shells
 l=0 nsto= 1
    1       1.188078000000        1.000000000000
  4 H     1 shells
 l=0 nsto= 1
    1       1.188078000000        1.000000000000
------------------------------------------------------------------------------
                           ORCA NDO INTEGRAL CALCULATION
------------------------------------------------------------------------------

--------------
NDO PARAMETERS
--------------

Gamma integral treatment              ... MOPAC
Nuclear repulsuion treatment          ... AM1-style
Interaction factors:
s-s (sigma) =    1.0000
s-p (sigma) =    1.0000
s-d (sigma) =    1.0000
p-p (sigma) =    1.0000  p-p(pi) =    1.0000
p-d (sigma) =    1.0000  p-d(pi) =    1.0000
d-d (sigma) =    1.0000  d-d(pi) =    1.0000 d-d (delta) =    1.0000

--------------------------
Parameters for Element H :
--------------------------
 One-electron parameters (in eV)
  U(s)  =   -11.396427 Beta(s) =     6.173787 Neff(s) =     1.000000
 One-center electron repulsion parameters (in eV)
  G(s,s)=    12.848000
--------------------------
Parameters for Element C :
--------------------------
 One-electron parameters (in eV)
  U(s)  =   -52.028658 Beta(s) =    15.715783 Neff(s) =     2.000000
  U(p)  =   -39.614239 Beta(p) =     7.719283 Neff(p) =     2.000000 
 One-center electron repulsion parameters (in eV)
  G(s,s)=    12.230000
  G(s,p)=    11.470000 G(p,p)  =    10.253300
 Slater-Condon parameters (in eV)
 F2(p,p)=     5.1667 G1(s,p)=    7.2900

 Number of atoms                    ....    5
 Number of basis functions          ....    8

 Overlap integrals                  .... done
 One electron matrix                .... done
 Nuclear repulsion                  .... done
 Integral list                      .... done
 Electron-electron repulsion        .... done
-------------------------------------------------------------------------------
                                 ORCA SCF
-------------------------------------------------------------------------------

------------
SCF SETTINGS
------------
Hamiltonian:
 ZDO-Hamiltonian        Method          .... NDDO


General Settings:
 Integral files         IntName         .... calc
 Hartree-Fock type      HFTyp           .... RHF
 Total Charge           Charge          ....    0
 Multiplicity           Mult            ....    1
 Number of Electrons    NEL             ....    8
 Basis Dimension        Dim             ....    8
 Nuclear Repulsion      ENuc            ....      7.5706013709 Eh

Convergence Acceleration:
 DIIS                   CNVDIIS         .... on
   Start iteration      DIISMaxIt       ....    12
   Startup error        DIISStart       ....  0.200000
   # of expansion vecs  DIISMaxEq       ....     5
   Bias factor          DIISBfac        ....   1.050
   Max. coefficient     DIISMaxC        ....  10.000
 Trust-Rad. Augm. Hess. CNVTRAH         .... off
 SOSCF                  CNVSOSCF        .... on
   Start iteration      SOSCFMaxIt      ....   150
   Startup grad/error   SOSCFStart      ....  0.003300
 Level Shifting         CNVShift        .... on
   Level shift para.    LevelShift      ....    0.2500
   Turn off err/grad.   ShiftErr        ....    0.0010
 Zerner damping         CNVZerner       .... off
 Static damping         CNVDamp         .... on
   Fraction old density DampFac         ....    0.7000
   Max. Damping (<1)    DampMax         ....    0.9800
   Min. Damping (>=0)   DampMin         ....    0.0000
   Turn off err/grad.   DampErr         ....    0.1000
 Fernandez-Rico         CNVRico         .... off

SCF Procedure:
 Maximum # iterations   MaxIter         ....   125
 SCF integral mode      SCFMode         .... Conventional
 Integral Buffer length BufferLength    .... 1048576
 Integral index format  IndFormat       ....     0
 Integral value format  ValFormat       ....     0
 Integral Storage       Thresh          ....  2.500e-11 Eh

Convergence Tolerance:
 Convergence Check Mode ConvCheckMode   .... Total+1el-Energy
 Convergence forced     ConvForced      .... 0
 Energy Change          TolE            ....  1.000e-08 Eh
 1-El. energy change                    ....  1.000e-05 Eh
 Orbital Gradient       TolG            ....  1.000e-05
 Orbital Rotation angle TolX            ....  1.000e-05
 DIIS Error             TolErr          ....  5.000e-07


Diagonalization of the overlap matrix:
Smallest eigenvalue                        ... 2.565e-01
Time for diagonalization                   ...    0.000 sec
Threshold for overlap eigenvalues          ... 1.000e-08
Number of eigenvalues below threshold      ... 0
Time for construction of square roots      ...    0.000 sec
Total time needed                          ...    0.000 sec

-------------------------------
INITIAL GUESS: EXTENDED HUECKEL
-------------------------------
EHT matrix was read from disk
EHT matrix was diagonalized
Initial density was built
                      ------------------
                      INITIAL GUESS DONE
                      ------------------

 InCore treatment chosen:
   Memory dedicated               ...    2000 MB
   Memory needed                  ...      0 MB
   Number of tiny    integrals    ...       0
   Number of small   integrals    ...       0
   Number of regular integrals    ...      58

--------------
SCF ITERATIONS
--------------
ITER       Energy         Delta-E        Max-DP      RMS-DP      [F,P]     Damp
  0     -6.7113951659   0.000000000000 0.01783743  0.00582283  0.0475720 0.7000
  1     -6.7142778584  -0.002882692566 0.01930579  0.00610029  0.0424045 0.7000
                               ***Turning on DIIS***
  2     -6.7169753818  -0.002697523330 0.05829302  0.01804226  0.0368045 0.0000
  3     -6.7079878095   0.008987572307 0.03785131  0.01100818  0.0198894 0.0000
  4     -6.7188114434  -0.010823633985 0.01833393  0.00515916  0.0088511 0.0000
  5     -6.7242003268  -0.005388883331 0.00809716  0.00225350  0.0034820 0.0000
                      *** Initiating the SOSCF procedure ***
                           *** Shutting down DIIS ***
                      *** Re-Reading the Fockian *** 
                      *** Removing any level shift *** 
ITER      Energy       Delta-E        Grad      Rot      Max-DP    RMS-DP
  6     -6.72712997  -0.0029296421  0.001240  0.001240  0.002685  0.000746
  7     -6.72854494  -0.0014149705  0.000182  0.000271  0.000539  0.000149
  8     -6.72854538  -0.0000004432  0.000090  0.000264  0.000527  0.000147
  9     -6.72854553  -0.0000001425  0.000008  0.000006  0.000013  0.000002
                 **** Energy Check signals convergence ****
              ***Rediagonalizing the Fockian in SOSCF/NRSCF***

               *****************************************************
               *                     SUCCESS                       *
               *           SCF CONVERGED AFTER  10 CYCLES          *
               *****************************************************


----------------
TOTAL SCF ENERGY
----------------

Total Energy       :           -6.72854553 Eh            -183.09303 eV

Components:
Nuclear Repulsion  :            7.57060137 Eh             206.00654 eV
Electronic Energy  :          -14.29914690 Eh            -389.09957 eV
One Electron Energy:          -23.43467003 Eh            -637.68979 eV
Two Electron Energy:            9.13552313 Eh             248.59022 eV


---------------
SCF CONVERGENCE
---------------

  Last Energy change         ...   -1.3899e-10  Tolerance :   1.0000e-08
  Last MAX-Density change    ...    3.9385e-06  Tolerance :   1.0000e-07
  Last RMS-Density change    ...    6.1575e-07  Tolerance :   5.0000e-09
  Last Orbital Gradient      ...    2.0066e-06  Tolerance :   1.0000e-05
  Last Orbital Rotation      ...    2.0130e-06  Tolerance :   1.0000e-05

             **** THE GBW FILE WAS UPDATED (calc.gbw) ****
             **** DENSITY calc.scfp WAS UPDATED ****
             **** ENERGY FILE WAS UPDATED (calc.en.tmp) ****
             **** THE GBW FILE WAS UPDATED (calc.gbw) ****
             **** DENSITY calc.scfp WAS UPDATED ****
----------------
ORBITAL ENERGIES
----------------

  NO   OCC          E(Eh)            E(eV) 
   0   2.0000      -1.091339       -29.6968 
   1   2.0000      -0.497324       -13.5329 
   2   2.0000      -0.496925       -13.5220 
   3   2.0000      -0.496225       -13.5030 
   4   0.0000       0.176392         4.7999 
   5   0.0000       0.177123         4.8198 
   6   0.0000       0.177508         4.8302 
   7   0.0000       0.203336         5.5331 

                    ********************************
                    * MULLIKEN POPULATION ANALYSIS *
                    ********************************

-----------------------
MULLIKEN ATOMIC CHARGES
-----------------------
   0 C :   -0.435828
   1 H :    0.108955
   2 H :    0.109545
   3 H :    0.108362
   4 H :    0.108966
Sum of atomic charges:    0.0000000

--------------------------------
MULLIKEN REDUCED ORBITAL CHARGES
--------------------------------
  0 C s       :     1.516085  s :     1.516085
      pz      :     0.973211  p :     2.919743
      px      :     0.973218
      py      :     0.973314
  1 H s       :     0.891045  s :     0.891045
  2 H s       :     0.890455  s :     0.890455
  3 H s       :     0.891638  s :     0.891638
  4 H s       :     0.891034  s :     0.891034


                     *******************************
                     * LOEWDIN POPULATION ANALYSIS *
                     *******************************

----------------------
LOEWDIN ATOMIC CHARGES
----------------------
   0 C :   -0.258386
   1 H :    0.064525
   2 H :    0.064754
   3 H :    0.064574
   4 H :    0.064533

-------------------------------
LOEWDIN REDUCED ORBITAL CHARGES
-------------------------------
  0 C s       :     1.206748  s :     1.206748
      pz      :     1.017046  p :     3.051637
      px      :     1.017267
      py      :     1.017324
  1 H s       :     0.935475  s :     0.935475
  2 H s       :     0.935246  s :     0.935246
  3 H s       :     0.935426  s :     0.935426
  4 H s       :     0.935467  s :     0.935467


                      *****************************
                      * MAYER POPULATION ANALYSIS *
                      *****************************

  NA   - Mulliken gross atomic population
  ZA   - Total nuclear charge
  QA   - Mulliken gross atomic charge
  VA   - Mayer's total valence
  BVA  - Mayer's bonded valence
  FA   - Mayer's free valence

  ATOM       NA         ZA         QA         VA         BVA        FA
  0 C      6.8940     4.0000    -2.8940     1.6247    11.2106    -9.5859
  1 H      1.5665     1.0000    -0.5665     0.6790     2.9569    -2.2778
  2 H      1.5678     1.0000    -0.5678     0.6777     2.9618    -2.2842
  3 H      1.5635     1.0000    -0.5635     0.6825     2.9444    -2.2619
  4 H      1.5665     1.0000    -0.5665     0.6791     2.9568    -2.2778

  Mayer bond orders larger than 0.100000
B(  0-C ,  1-H ) :   2.8041 B(  0-C ,  2-H ) :   2.8091 B(  0-C ,  3-H ) :   2.7932 
B(  0-C ,  4-H ) :   2.8041 

-------
TIMINGS
-------

Total SCF time: 0 days 0 hours 0 min 0 sec 

Total time                  ....       0.121 sec
Sum of individual times     ....       0.008 sec  (  6.8%)

Fock matrix formation       ....       0.007 sec  (  5.9%)
Diagonalization             ....       0.000 sec  (  0.2%)
Density matrix formation    ....       0.000 sec  (  0.0%)
Population analysis         ....       0.000 sec  (  0.3%)
Initial guess               ....       0.000 sec  (  0.1%)
Orbital Transformation      ....       0.000 sec  (  0.0%)
Orbital Orthonormalization  ....       0.000 sec  (  0.0%)
DIIS solution               ....       0.000 sec  (  0.2%)
SOSCF solution              ....       0.000 sec  (  0.1%)

Maximum memory used throughout the entire SCF-calculation: 222.8 MB

-------------------------   --------------------
FINAL SINGLE POINT ENERGY        -6.728545525246
-------------------------   --------------------

------------------------------------------------------------------------------
                          SCF GRADIENT FOR NDO METHODS
------------------------------------------------------------------------------

The cartesian gradient:
   1   C   :   -0.000535165   -0.000729476    0.004257772
   2   H   :   -0.011379021    0.032134666    0.000037727
   3   H   :   -0.012046176   -0.017041728   -0.029094061
   4   H   :   -0.010134351   -0.014338109    0.024760848
   5   H   :    0.034094713   -0.000025352    0.000037714

Norm of the cartesian gradient     ...    0.067430707
RMS gradient                       ...    0.017410534
MAX gradient                       ...    0.034094713
------------------------------------------------------------------------------
                         ORCA GEOMETRY RELAXATION STEP
------------------------------------------------------------------------------

Reading the OPT-File                    .... done
Getting information on internals        .... done
Copying old internal coords+grads       .... done
Making the new internal coordinates     .... (new redundants).... done
Validating the new internal coordinates .... (new redundants).... done
Calculating the B-matrix                .... done
Calculating the G,G- and P matrices     .... done
Transforming gradient to internals      .... done
Projecting the internal gradient        .... done
Number of atoms                         ....   5
Number of internal coordinates          ....  11
Current Energy                          ....    -6.728545525 Eh
Current gradient norm                   ....     0.067430707 Eh/bohr
Maximum allowed component of the step   ....  0.300
Current trust radius                    ....  0.300
Evaluating the initial hessian          ....  (Almloef) done
Projecting the Hessian                  .... done
Forming the augmented Hessian           .... done
Diagonalizing the augmented Hessian     .... done
Last element of RFO vector              ....  0.986035068
Lowest eigenvalues of augmented Hessian:
 -0.011364335  0.296807045  0.297047372  0.297475665  0.297935484
Length of the computed step             ....  0.168896447
The final length of the internal step   ....  0.168896447
Converting the step to cartesian space:
 Initial RMS(Int)=    0.0509241949
Transforming coordinates:
 Iter   0:  RMS(Cart)=    0.0436021820 RMS(Int)=    0.0509241800
 Iter   1:  RMS(Cart)=    0.0000155299 RMS(Int)=    0.0000176985
 Iter   2:  RMS(Cart)=    0.0000006399 RMS(Int)=    0.0000007260
 Iter   3:  RMS(Cart)=    0.0000000263 RMS(Int)=    0.0000000299
Imposing constraints:
 Iter   0:  RMS(Cart)=    0.0000020086 RMS(Int)=    0.0000149703
 Iter   1:  RMS(Cart)=    0.0000016005 RMS(Int)=    0.0000119292
 Iter   2:  RMS(Cart)=    0.0000012754 RMS(Int)=    0.0000095058
 Iter   3:  RMS(Cart)=    0.0000010163 RMS(Int)=    0.0000075748
 Iter   4:  RMS(Cart)=    0.0000008099 RMS(Int)=    0.0000060360
 Iter   5:  RMS(Cart)=    0.0000006453 RMS(Int)=    0.0000048098
 Iter   6:  RMS(Cart)=    0.0000005142 RMS(Int)=    0.0000038327
 Iter   7:  RMS(Cart)=    0.0000004098 RMS(Int)=    0.0000030541
 Iter   8:  RMS(Cart)=    0.0000003265 RMS(Int)=    0.0000024337
 Iter   9:  RMS(Cart)=    0.0000002602 RMS(Int)=    0.0000019393
 Iter  10:  RMS(Cart)=    0.0000002073 RMS(Int)=    0.0000015453
 Iter  11:  RMS(Cart)=    0.0000001652 RMS(Int)=    0.0000012314
 Iter  12:  RMS(Cart)=    0.0000001317 RMS(Int)=    0.0000009813
 Iter  13:  RMS(Cart)=    0.0000001049 RMS(Int)=    0.0000007819
 Iter  14:  RMS(Cart)=    0.0000000836 RMS(Int)=    0.0000006231
 Iter  15:  RMS(Cart)=    0.0000000666 RMS(Int)=    0.0000004965
 Iter  16:  RMS(Cart)=    0.0000000531 RMS(Int)=    0.0000003956
 Iter  17:  RMS(Cart)=    0.0000000423 RMS(Int)=    0.0000003153
 Iter  18:  RMS(Cart)=    0.0000000337 RMS(Int)=    0.0000002512
 Iter  19:  RMS(Cart)=    0.0000000269 RMS(Int)=    0.0000002002
 Iter  20:  RMS(Cart)=    0.0000000214 RMS(Int)=    0.0000001595
 Iter  21:  RMS(Cart)=    0.0000000171 RMS(Int)=    0.0000001271
 Iter  22:  RMS(Cart)=    0.0000000136 RMS(Int)=    0.0000001013
 Iter  23:  RMS(Cart)=    0.0000000108 RMS(Int)=    0.0000000807
CONVERGED
done
Storing new coordinates                 .... done

                                .--------------------.
          ----------------------|Geometry convergence|-------------------------
          Item                value                   Tolerance       Converged
          ---------------------------------------------------------------------
          RMS gradient        0.0202882382            0.0001000000      NO
          MAX gradient        0.0356320680            0.0003000000      NO
          RMS step            0.0509241949            0.0020000000      NO
          MAX step            0.0887282172            0.0040000000      NO
          ........................................................
          Max(Bonds)      0.0470      Max(Angles)    0.06
          Max(Dihed)        0.00      Max(Improp)    0.00
          ---------------------------------------------------------------------

The optimization has not yet converged - more geometry cycles are needed


    ---------------------------------------------------------------------------
                         Redundant Internal Coordinates
                            (Angstroem and degrees)

        Definition                    Value    dE/dq     Step     New-Value
    ----------------------------------------------------------------------------
     1. B(H   1,C   0)                1.0700 -0.034126  0.0454    1.1154   
     2. B(H   2,C   0)                1.0676 -0.035768  0.0470    1.1146   
     3. B(H   3,C   0)                1.0750 -0.030354  0.0410    1.1159   
     4. B(H   4,C   0)                1.0700 -0.034095  0.0452    1.1152   
     5. A(H   2,C   0,H   3)          109.56  0.000297   -0.06    109.50   
     6. A(H   1,C   0,H   3)          109.38  0.000008   -0.01    109.37   
     7. A(H   2,C   0,H   4)          109.52 -0.000068    0.01    109.53   
     8. A(H   3,C   0,H   4)          109.38  0.000020   -0.01    109.37   
     9. A(H   1,C   0,H   2)          109.52 -0.000185    0.06    109.58   
    10. A(H   1,C   0,H   4)          109.47 -0.000072    0.01    109.48   
    11. A(C   0,H   1,H   2)           35.20 -0.000209    0.00     35.20 C 
    ----------------------------------------------------------------------------

         *************************************************************
         *                GEOMETRY OPTIMIZATION CYCLE   2            *
         *************************************************************
---------------------------------
CARTESIAN COORDINATES (ANGSTROEM)
---------------------------------
  C      4.291944    3.658816   -0.000759
  H      4.663702    2.607236   -0.001267
  H      4.664392    4.186162    0.907777
  H      4.662346    4.182755   -0.913780
  H      3.176716    3.659031   -0.000972

----------------------------
CARTESIAN COORDINATES (A.U.)
----------------------------
  NO LB      ZA    FRAG     MASS         X           Y           Z
   0 C     4.0000    0    12.011    8.110598    6.914160   -0.001434
   1 H     1.0000    0     1.008    8.813119    4.926962   -0.002395
   2 H     1.0000    0     1.008    8.814424    7.910700    1.715451
   3 H     1.0000    0     1.008    8.810558    7.904261   -1.726793
   4 H     1.0000    0     1.008    6.003123    6.914567   -0.001836

--------------------------------
INTERNAL COORDINATES (ANGSTROEM)
--------------------------------
 C      0   0   0     0.000000000000     0.00000000     0.00000000
 H      1   0   0     1.115358295064     0.00000000     0.00000000
 H      1   2   0     1.114562800999   109.57728585     0.00000000
 H      1   2   3     1.115937755194   109.36915694   120.04212112
 H      1   2   3     1.115227702994   109.48074790   239.86221643

---------------------------
INTERNAL COORDINATES (A.U.)
---------------------------
 C      0   0   0     0.000000000000     0.00000000     0.00000000
 H      1   0   0     2.107721718868     0.00000000     0.00000000
 H      1   2   0     2.106218452945   109.57728585     0.00000000
 H      1   2   3     2.108816739820   109.36915694   120.04212112
 H      1   2   3     2.107474935621   109.48074790   239.86221643

------------------------------------------------------------------------------
                           ORCA NDO INTEGRAL CALCULATION
------------------------------------------------------------------------------

--------------
NDO PARAMETERS
--------------

Gamma integral treatment              ... MOPAC
Nuclear repulsuion treatment          ... AM1-style
Interaction factors:
s-s (sigma) =    1.0000
s-p (sigma) =    1.0000
s-d (sigma) =    1.0000
p-p (sigma) =    1.0000  p-p(pi) =    1.0000
p-d (sigma) =    1.0000  p-d(pi) =    1.0000
d-d (sigma) =    1.0000  d-d(pi) =    1.0000 d-d (delta) =    1.0000

--------------------------
Parameters for Element H :
--------------------------
 One-electron parameters (in eV)
  U(s)  =   -11.396427 Beta(s) =     6.173787 Neff(s) =     1.000000
 One-center electron repulsion parameters (in eV)
  G(s,s)=    12.848000
--------------------------
Parameters for Element C :
--------------------------
 One-electron parameters (in eV)
  U(s)  =   -52.028658 Beta(s) =    15.715783 Neff(s) =     2.000000
  U(p)  =   -39.614239 Beta(p) =     7.719283 Neff(p) =     2.000000 
 One-center electron repulsion parameters (in eV)
  G(s,s)=    12.230000
  G(s,p)=    11.470000 G(p,p)  =    10.253300
 Slater-Condon parameters (in eV)
 F2(p,p)=     5.1667 G1(s,p)=    7.2900

 Number of atoms                    ....    5
 Number of basis functions          ....    8

 Overlap integrals                  .... done
 One electron matrix                .... done
 Nuclear repulsion                  .... done
 Integral list                      .... done
 Electron-electron repulsion        .... done

Diagonalization of the overlap matrix:
Smallest eigenvalue                        ... 2.847e-01
Time for diagonalization                   ...    0.000 sec
Threshold for overlap eigenvalues          ... 1.000e-08
Number of eigenvalues below threshold      ... 0
Time for construction of square roots      ...    0.000 sec
Total time needed                          ...    0.000 sec


 InCore treatment chosen:
   Memory dedicated               ...    2000 MB
   Memory needed                  ...      0 MB
   Number of tiny    integrals    ...       0
   Number of small   integrals    ...       1
   Number of regular integrals    ...      65

--------------
SCF ITERATIONS
--------------
ITER       Energy         Delta-E        Max-DP      RMS-DP      [F,P]     Damp
  0     -6.7332237104   0.000000000000 0.00489463  0.00074652  0.0128524 0.7000
                      *** Initiating the SOSCF procedure ***
                      *** Re-Reading the Fockian *** 
                      *** Removing any level shift *** 
ITER      Energy       Delta-E        Grad      Rot      Max-DP    RMS-DP
  1     -6.73330330  -0.0000795909  0.002807  0.002807  0.015072  0.002313
  2     -6.73354829  -0.0002449841  0.002684  0.002150  0.004186  0.000714
  3     -6.73356561  -0.0000173275  0.000619  0.000713  0.001387  0.000327
  4     -6.73356729  -0.0000016732  0.000066  0.000126  0.000249  0.000070
  5     -6.73356736  -0.0000000694  0.000047  0.000067  0.000133  0.000041
  6     -6.73356737  -0.0000000134  0.000003  0.000003  0.000006  0.000001
                 **** Energy Check signals convergence ****
              ***Rediagonalizing the Fockian in SOSCF/NRSCF***

               *****************************************************
               *                     SUCCESS                       *
               *           SCF CONVERGED AFTER   7 CYCLES          *
               *****************************************************

Total Energy       :           -6.73356737 Eh            -183.22968 eV
  Last Energy change         ...   -2.0695e-11  Tolerance :   1.0000e-08
  Last MAX-Density change    ...    3.4704e-07  Tolerance :   1.0000e-07
             **** THE GBW FILE WAS UPDATED (calc.gbw) ****
             **** DENSITY calc.scfp WAS UPDATED ****
             **** ENERGY FILE WAS UPDATED (calc.en.tmp) ****
             **** THE GBW FILE WAS UPDATED (calc.gbw) ****
             **** DENSITY calc.scfp WAS UPDATED ****
Total SCF time: 0 days 0 hours 0 min 0 sec 

Maximum memory used throughout the entire SCF-calculation: 222.8 MB

-------------------------   --------------------
FINAL SINGLE POINT ENERGY        -6.733567368802
-------------------------   --------------------

------------------------------------------------------------------------------
                          SCF GRADIENT FOR NDO METHODS
------------------------------------------------------------------------------

The cartesian gradient:
   1   C   :    0.000008185    0.000044815    0.000946950
   2   H   :    0.000918790   -0.002582128   -0.000168046
   3   H   :    0.000765284    0.001166766    0.001880902
   4   H   :    0.000938023    0.001337063   -0.002534547
   5   H   :   -0.002630282    0.000033485   -0.000125260

Norm of the cartesian gradient     ...    0.005472672
RMS gradient                       ...    0.001413038
MAX gradient                       ...    0.002630282
------------------------------------------------------------------------------
                         ORCA GEOMETRY RELAXATION STEP
------------------------------------------------------------------------------

Reading the OPT-File                    .... done
Getting information on internals        .... done
Copying old internal coords+grads       .... done
Making the new internal coordinates     .... (new redundants).... done
Validating the new internal coordinates .... (new redundants).... done
Calculating the B-matrix                .... done
Calculating the G,G- and P matrices     .... done
Transforming gradient to internals      .... done
Projecting the internal gradient        .... done
Number of atoms                         ....   5
Number of internal coordinates          ....  11
Current Energy                          ....    -6.733567369 Eh
Current gradient norm                   ....     0.005472672 Eh/bohr
Maximum allowed component of the step   ....  0.300
Current trust radius                    ....  0.300
Updating the Hessian (BFGS)             .... done
Forming the augmented Hessian           .... done
Diagonalizing the augmented Hessian     .... done
Last element of RFO vector              ....  0.999921161
Lowest eigenvalues of augmented Hessian:
 -0.000067620  0.296807042  0.297030015  0.297476967  0.297934574
Length of the computed step             ....  0.012557697
The final length of the internal step   ....  0.012557697
Converting the step to cartesian space:
 Initial RMS(Int)=    0.0037862880
Transforming coordinates:
 Iter   0:  RMS(Cart)=    0.0032332752 RMS(Int)=    0.0037862910
 Iter   1:  RMS(Cart)=    0.0000007862 RMS(Int)=    0.0000008327
 Iter   2:  RMS(Cart)=    0.0000000024 RMS(Int)=    0.0000000025
Imposing constraints:
 Iter   0:  RMS(Cart)=    0.0000003354 RMS(Int)=    0.0000023973
 Iter   1:  RMS(Cart)=    0.0000002651 RMS(Int)=    0.0000018951
 Iter   2:  RMS(Cart)=    0.0000002096 RMS(Int)=    0.0000014981
 Iter   3:  RMS(Cart)=    0.0000001657 RMS(Int)=    0.0000011842
 Iter   4:  RMS(Cart)=    0.0000001310 RMS(Int)=    0.0000009362
 Iter   5:  RMS(Cart)=    0.0000001035 RMS(Int)=    0.0000007401
 Iter   6:  RMS(Cart)=    0.0000000818 RMS(Int)=    0.0000005850
 Iter   7:  RMS(Cart)=    0.0000000647 RMS(Int)=    0.0000004625
 Iter   8:  RMS(Cart)=    0.0000000511 RMS(Int)=    0.0000003656
 Iter   9:  RMS(Cart)=    0.0000000404 RMS(Int)=    0.0000002890
 Iter  10:  RMS(Cart)=    0.0000000320 RMS(Int)=    0.0000002285
 Iter  11:  RMS(Cart)=    0.0000000253 RMS(Int)=    0.0000001806
 Iter  12:  RMS(Cart)=    0.0000000200 RMS(Int)=    0.0000001428
 Iter  13:  RMS(Cart)=    0.0000000158 RMS(Int)=    0.0000001129
 Iter  14:  RMS(Cart)=    0.0000000125 RMS(Int)=    0.0000000892
CONVERGED
done
Storing new coordinates                 .... done

                                .--------------------.
          ----------------------|Geometry convergence|-------------------------
          Item                value                   Tolerance       Converged
          ---------------------------------------------------------------------
          Energy change      -0.0050218436            0.0000050000      NO
          RMS gradient        0.0016239927            0.0001000000      NO
          MAX gradient        0.0030127842            0.0003000000      NO
          RMS step            0.0037862880            0.0020000000      NO
          MAX step            0.0071539931            0.0040000000      NO
          ........................................................
          Max(Bonds)      0.0038      Max(Angles)    0.03
          Max(Dihed)        0.00      Max(Improp)    0.00
          ---------------------------------------------------------------------

The optimization has not yet converged - more geometry cycles are needed


    ---------------------------------------------------------------------------
                         Redundant Internal Coordinates
                            (Angstroem and degrees)

        Definition                    Value    dE/dq     Step     New-Value
    ----------------------------------------------------------------------------
     1. B(H   1,C   0)                1.1154  0.002718 -0.0032    1.1121   
     2. B(H   2,C   0)                1.1146  0.002364 -0.0030    1.1116   
     3. B(H   3,C   0)                1.1159  0.003013 -0.0038    1.1122   
     4. B(H   4,C   0)                1.1152  0.002630 -0.0032    1.1120   
     5. A(H   2,C   0,H   3)          109.50  0.000069   -0.02    109.48   
     6. A(H   1,C   0,H   3)          109.37 -0.000180    0.02    109.39   
     7. A(H   2,C   0,H   4)          109.53  0.000111   -0.03    109.50   
     8. A(H   3,C   0,H   4)          109.37 -0.000192    0.03    109.40   
     9. A(H   1,C   0,H   2)          109.58  0.000157    0.01    109.59   
    10. A(H   1,C   0,H   4)          109.48  0.000033   -0.01    109.47   
    11. A(C   0,H   1,H   2)           35.20 -0.000138    0.00     35.20 C 
    ----------------------------------------------------------------------------

         *************************************************************
         *                GEOMETRY OPTIMIZATION CYCLE   3            *
         *************************************************************
---------------------------------
CARTESIAN COORDINATES (ANGSTROEM)
---------------------------------
  C      4.292015    3.658781   -0.001050
  H      4.662495    2.610173   -0.001376
  H      4.663277    4.184890    0.905054
  H      4.661302    4.181206   -0.910765
  H      3.180011    3.658950   -0.000863

----------------------------
CARTESIAN COORDINATES (A.U.)
----------------------------
  NO LB      ZA    FRAG     MASS         X           Y           Z
   0 C     4.0000    0    12.011    8.110732    6.914094   -0.001985
   1 H     1.0000    0     1.008    8.810839    4.932512   -0.002600
   2 H     1.0000    0     1.008    8.812317    7.908296    1.710305
   3 H     1.0000    0     1.008    8.808585    7.901334   -1.721097
   4 H     1.0000    0     1.008    6.009350    6.914414   -0.001630

--------------------------------
INTERNAL COORDINATES (ANGSTROEM)
--------------------------------
 C      0   0   0     0.000000000000     0.00000000     0.00000000
 H      1   0   0     1.112130662464     0.00000000     0.00000000
 H      1   2   0     1.111599239592   109.58681328     0.00000000
 H      1   2   3     1.112152025146   109.39373003   120.03847551
 H      1   2   3     1.112003817173   109.46737963   239.89815339

---------------------------
INTERNAL COORDINATES (A.U.)
---------------------------
 C      0   0   0     0.000000000000     0.00000000     0.00000000
 H      1   0   0     2.101622377193     0.00000000     0.00000000
 H      1   2   0     2.100618133503   109.58681328     0.00000000
 H      1   2   3     2.101662746813   109.39373003   120.03847551
 H      1   2   3     2.101382674332   109.46737963   239.89815339

------------------------------------------------------------------------------
                           ORCA NDO INTEGRAL CALCULATION
------------------------------------------------------------------------------

--------------
NDO PARAMETERS
--------------

Gamma integral treatment              ... MOPAC
Nuclear repulsuion treatment          ... AM1-style
Interaction factors:
s-s (sigma) =    1.0000
s-p (sigma) =    1.0000
s-d (sigma) =    1.0000
p-p (sigma) =    1.0000  p-p(pi) =    1.0000
p-d (sigma) =    1.0000  p-d(pi) =    1.0000
d-d (sigma) =    1.0000  d-d(pi) =    1.0000 d-d (delta) =    1.0000

--------------------------
Parameters for Element H :
--------------------------
 One-electron parameters (in eV)
  U(s)  =   -11.396427 Beta(s) =     6.173787 Neff(s) =     1.000000
 One-center electron repulsion parameters (in eV)
  G(s,s)=    12.848000
--------------------------
Parameters for Element C :
--------------------------
 One-electron parameters (in eV)
  U(s)  =   -52.028658 Beta(s) =    15.715783 Neff(s) =     2.000000
  U(p)  =   -39.614239 Beta(p) =     7.719283 Neff(p) =     2.000000 
 One-center electron repulsion parameters (in eV)
  G(s,s)=    12.230000
  G(s,p)=    11.470000 G(p,p)  =    10.253300
 Slater-Condon parameters (in eV)
 F2(p,p)=     5.1667 G1(s,p)=    7.2900

 Number of atoms                    ....    5
 Number of basis functions          ....    8

 Overlap integrals                  .... done
 One electron matrix                .... done
 Nuclear repulsion                  .... done
 Integral list                      .... done
 Electron-electron repulsion        .... done

Diagonalization of the overlap matrix:
Smallest eigenvalue                        ... 2.826e-01
Time for diagonalization                   ...    0.000 sec
Threshold for overlap eigenvalues          ... 1.000e-08
Number of eigenvalues below threshold      ... 0
Time for construction of square roots      ...    0.000 sec
Total time needed                          ...    0.000 sec


 InCore treatment chosen:
   Memory dedicated               ...    2000 MB
   Memory needed                  ...      0 MB
   Number of tiny    integrals    ...       0
   Number of small   integrals    ...       1
   Number of regular integrals    ...      65

--------------
SCF ITERATIONS
--------------
ITER       Energy         Delta-E        Max-DP      RMS-DP      [F,P]     Damp
                      *** Initiating the SOSCF procedure ***
                      *** Re-Reading the Fockian *** 
                      *** Removing any level shift *** 
ITER      Energy       Delta-E        Grad      Rot      Max-DP    RMS-DP
  0     -6.73360272  -6.7336027208  0.000933  0.000933  0.001209  0.000187
  1     -6.73360440  -0.0000016743  0.000334  0.000267  0.000520  0.000086
  2     -6.73360466  -0.0000002600  0.000077  0.000086  0.000168  0.000036
  3     -6.73360468  -0.0000000225  0.000007  0.000013  0.000026  0.000007
  4     -6.73360468  -0.0000000008  0.000005  0.000008  0.000017  0.000005
                 **** Energy Check signals convergence ****
              ***Rediagonalizing the Fockian in SOSCF/NRSCF***

               *****************************************************
               *                     SUCCESS                       *
               *           SCF CONVERGED AFTER   5 CYCLES          *
               *****************************************************

Total Energy       :           -6.73360468 Eh            -183.23070 eV
  Last Energy change         ...   -1.6924e-10  Tolerance :   1.0000e-08
  Last MAX-Density change    ...    5.4173e-07  Tolerance :   1.0000e-07
             **** THE GBW FILE WAS UPDATED (calc.gbw) ****
             **** DENSITY calc.scfp WAS UPDATED ****
             **** ENERGY FILE WAS UPDATED (calc.en.tmp) ****
             **** THE GBW FILE WAS UPDATED (calc.gbw) ****
             **** DENSITY calc.scfp WAS UPDATED ****
Total SCF time: 0 days 0 hours 0 min 0 sec 

Maximum memory used throughout the entire SCF-calculation: 222.8 MB

-------------------------   --------------------
FINAL SINGLE POINT ENERGY        -6.733604678583
-------------------------   --------------------

------------------------------------------------------------------------------
                          SCF GRADIENT FOR NDO METHODS
------------------------------------------------------------------------------

The cartesian gradient:
   1   C   :    0.000082663    0.000096823    0.000514449
   2   H   :    0.000102283   -0.000348639   -0.000168618
   3   H   :   -0.000001954    0.000137540    0.000035801
   4   H   :    0.000052551    0.000086825   -0.000286803
   5   H   :   -0.000235543    0.000027450   -0.000094829

Norm of the cartesian gradient     ...    0.000786953
RMS gradient                       ...    0.000203190
MAX gradient                       ...    0.000514449
------------------------------------------------------------------------------
                         ORCA GEOMETRY RELAXATION STEP
------------------------------------------------------------------------------

Reading the OPT-File                    .... done
Getting information on internals        .... done
Copying old internal coords+grads       .... done
Making the new internal coordinates     .... (new redundants).... done
Validating the new internal coordinates .... (new redundants).... done
Calculating the B-matrix                .... done
Calculating the G,G- and P matrices     .... done
Transforming gradient to internals      .... done
Projecting the internal gradient        .... done
Number of atoms                         ....   5
Number of internal coordinates          ....  11
Current Energy                          ....    -6.733604679 Eh
Current gradient norm                   ....     0.000786953 Eh/bohr
Maximum allowed component of the step   ....  0.300
Current trust radius                    ....  0.300
Updating the Hessian (BFGS)             .... done
Forming the augmented Hessian           .... done
Diagonalizing the augmented Hessian     .... done
Last element of RFO vector              ....  0.999998846
Lowest eigenvalues of augmented Hessian:
 -0.000000812  0.293752690  0.296807867  0.297407237  0.297837972
Length of the computed step             ....  0.001518977
The final length of the internal step   ....  0.001518977
Converting the step to cartesian space:
 Initial RMS(Int)=    0.0004579889
Transforming coordinates:
 Iter   0:  RMS(Cart)=    0.0003894977 RMS(Int)=    0.0004579902
 Iter   1:  RMS(Cart)=    0.0000000846 RMS(Int)=    0.0000000913
Imposing constraints:
 Iter   0:  RMS(Cart)=    0.0000000714 RMS(Int)=    0.0000005118
 Iter   1:  RMS(Cart)=    0.0000000565 RMS(Int)=    0.0000004048
 Iter   2:  RMS(Cart)=    0.0000000447 RMS(Int)=    0.0000003201
 Iter   3:  RMS(Cart)=    0.0000000353 RMS(Int)=    0.0000002531
 Iter   4:  RMS(Cart)=    0.0000000279 RMS(Int)=    0.0000002002
 Iter   5:  RMS(Cart)=    0.0000000221 RMS(Int)=    0.0000001583
 Iter   6:  RMS(Cart)=    0.0000000175 RMS(Int)=    0.0000001252
 Iter   7:  RMS(Cart)=    0.0000000138 RMS(Int)=    0.0000000990
CONVERGED
done
Storing new coordinates                 .... done

                                .--------------------.
          ----------------------|Geometry convergence|-------------------------
          Item                value                   Tolerance       Converged
          ---------------------------------------------------------------------
          Energy change      -0.0000373098            0.0000050000      NO
          RMS gradient        0.0001627523            0.0001000000      NO
          MAX gradient        0.0002928332            0.0003000000      YES
          RMS step            0.0004579889            0.0020000000      YES
          MAX step            0.0007862533            0.0040000000      YES
          ........................................................
          Max(Bonds)      0.0004      Max(Angles)    0.02
          Max(Dihed)        0.00      Max(Improp)    0.00
          ---------------------------------------------------------------------

       The step convergence is overachieved with 
       reasonable convergence on the gradient
       Convergence will therefore be signaled now


                    ***********************HURRAY********************
                    ***        THE OPTIMIZATION HAS CONVERGED     ***
                    *************************************************


    ---------------------------------------------------------------------------
                         Redundant Internal Coordinates

                          --- Optimized Parameters ---  
                            (Angstroem and degrees)

        Definition                    OldVal   dE/dq     Step     FinalVal
    ----------------------------------------------------------------------------
     1. B(H   1,C   0)                1.1121  0.000340 -0.0004    1.1118   
     2. B(H   2,C   0)                1.1116  0.000116 -0.0003    1.1113   
     3. B(H   3,C   0)                1.1122  0.000293 -0.0004    1.1117   
     4. B(H   4,C   0)                1.1120  0.000236 -0.0003    1.1117   
     5. A(H   2,C   0,H   3)          109.48  0.000020   -0.01    109.47   
     6. A(H   1,C   0,H   3)          109.39 -0.000144    0.02    109.42   
     7. A(H   2,C   0,H   4)          109.50  0.000070   -0.02    109.47   
     8. A(H   3,C   0,H   4)          109.40 -0.000160    0.02    109.42   
     9. A(H   1,C   0,H   2)          109.59  0.000197    0.00    109.59   
    10. A(H   1,C   0,H   4)          109.47  0.000016   -0.01    109.45   
    11. A(C   0,H   1,H   2)           35.20 -0.000136   -0.00     35.20 C 
    ----------------------------------------------------------------------------
                 *******************************************************
                 *** FINAL ENERGY EVALUATION AT THE STATIONARY POINT ***
                 ***               (AFTER    3 CYCLES)               ***
                 *******************************************************
---------------------------------
CARTESIAN COORDINATES (ANGSTROEM)
---------------------------------
  C      4.292060    3.658746   -0.001225
  H      4.662256    2.610412   -0.001352
  H      4.663067    4.184810    0.904679
  H      4.661336    4.181179   -0.910432
  H      3.180381    3.658852   -0.000670

----------------------------
CARTESIAN COORDINATES (A.U.)
----------------------------
  NO LB      ZA    FRAG     MASS         X           Y           Z
   0 C     4.0000    0    12.011    8.110819    6.914029   -0.002315
   1 H     1.0000    0     1.008    8.810387    4.932965   -0.002554
   2 H     1.0000    0     1.008    8.811920    7.908145    1.709595
   3 H     1.0000    0     1.008    8.808648    7.901283   -1.720467
   4 H     1.0000    0     1.008    6.010048    6.914229   -0.001267

--------------------------------
INTERNAL COORDINATES (ANGSTROEM)
--------------------------------
 C      0   0   0     0.000000000000     0.00000000     0.00000000
 H      1   0   0     1.111777380460     0.00000000     0.00000000
 H      1   2   0     1.111328197050   109.58980096     0.00000000
 H      1   2   3     1.111735957806   109.41535087   120.03733613
 H      1   2   3     1.111679920115   109.45497859   239.93309881

---------------------------
INTERNAL COORDINATES (A.U.)
---------------------------
 C      0   0   0     0.000000000000     0.00000000     0.00000000
 H      1   0   0     2.100954770959     0.00000000     0.00000000
 H      1   2   0     2.100105937329   109.58980096     0.00000000
 H      1   2   3     2.100876493487   109.41535087   120.03733613
 H      1   2   3     2.100770597596   109.45497859   239.93309881

----------------------------
SLATER BASIS SET DIM=   8
----------------------------
  0 C     2 shells
 l=0 nsto= 1
    2       1.808665000000        1.000000000000
 l=1 nsto= 1
    2       1.685116000000        1.000000000000
  1 H     1 shells
 l=0 nsto= 1
    1       1.188078000000        1.000000000000
  2 H     1 shells
 l=0 nsto= 1
    1       1.188078000000        1.000000000000
  3 H     1 shells
 l=0 nsto= 1
    1       1.188078000000        1.000000000000
  4 H     1 shells
 l=0 nsto= 1
    1       1.188078000000        1.000000000000
------------------------------------------------------------------------------
                           ORCA NDO INTEGRAL CALCULATION
------------------------------------------------------------------------------

--------------
NDO PARAMETERS
--------------

Gamma integral treatment              ... MOPAC
Nuclear repulsuion treatment          ... AM1-style
Interaction factors:
s-s (sigma) =    1.0000
s-p (sigma) =    1.0000
s-d (sigma) =    1.0000
p-p (sigma) =    1.0000  p-p(pi) =    1.0000
p-d (sigma) =    1.0000  p-d(pi) =    1.0000
d-d (sigma) =    1.0000  d-d(pi) =    1.0000 d-d (delta) =    1.0000

--------------------------
Parameters for Element H :
--------------------------
 One-electron parameters (in eV)
  U(s)  =   -11.396427 Beta(s) =     6.173787 Neff(s) =     1.000000
 One-center electron repulsion parameters (in eV)
  G(s,s)=    12.848000
--------------------------
Parameters for Element C :
--------------------------
 One-electron parameters (in eV)
  U(s)  =   -52.028658 Beta(s) =    15.715783 Neff(s) =     2.000000
  U(p)  =   -39.614239 Beta(p) =     7.719283 Neff(p) =     2.000000 
 One-center electron repulsion parameters (in eV)
  G(s,s)=    12.230000
  G(s,p)=    11.470000 G(p,p)  =    10.253300
 Slater-Condon parameters (in eV)
 F2(p,p)=     5.1667 G1(s,p)=    7.2900

 Number of atoms                    ....    5
 Number of basis functions          ....    8

 Overlap integrals                  .... done
 One electron matrix                .... done
 Nuclear repulsion                  .... done
 Integral list                      .... done
 Electron-electron repulsion        .... done
-------------------------------------------------------------------------------
                                 ORCA SCF
-------------------------------------------------------------------------------

------------
SCF SETTINGS
------------
Hamiltonian:
 ZDO-Hamiltonian        Method          .... NDDO


General Settings:
 Integral files         IntName         .... calc
 Hartree-Fock type      HFTyp           .... RHF
 Total Charge           Charge          ....    0
 Multiplicity           Mult            ....    1
 Number of Electrons    NEL             ....    8
 Basis Dimension        Dim             ....    8
 Nuclear Repulsion      ENuc            ....      7.3603824628 Eh

Convergence Acceleration:
 DIIS                   CNVDIIS         .... on
   Start iteration      DIISMaxIt       ....    12
   Startup error        DIISStart       ....  0.200000
   # of expansion vecs  DIISMaxEq       ....     5
   Bias factor          DIISBfac        ....   1.050
   Max. coefficient     DIISMaxC        ....  10.000
 Trust-Rad. Augm. Hess. CNVTRAH         .... off
 SOSCF                  CNVSOSCF        .... on
   Start iteration      SOSCFMaxIt      ....   150
   Startup grad/error   SOSCFStart      ....  0.003300
 Level Shifting         CNVShift        .... on
   Level shift para.    LevelShift      ....    0.2500
   Turn off err/grad.   ShiftErr        ....    0.0010
 Zerner damping         CNVZerner       .... off
 Static damping         CNVDamp         .... on
   Fraction old density DampFac         ....    0.7000
   Max. Damping (<1)    DampMax         ....    0.9800
   Min. Damping (>=0)   DampMin         ....    0.0000
   Turn off err/grad.   DampErr         ....    0.1000
 Fernandez-Rico         CNVRico         .... off

SCF Procedure:
 Maximum # iterations   MaxIter         ....   125
 SCF integral mode      SCFMode         .... Conventional
 Integral Buffer length BufferLength    .... 1048576
 Integral index format  IndFormat       ....     0
 Integral value format  ValFormat       ....     0
 Integral Storage       Thresh          ....  2.500e-11 Eh

Convergence Tolerance:
 Convergence Check Mode ConvCheckMode   .... Total+1el-Energy
 Convergence forced     ConvForced      .... 0
 Energy Change          TolE            ....  1.000e-08 Eh
 1-El. energy change                    ....  1.000e-05 Eh
 Orbital Gradient       TolG            ....  1.000e-05
 Orbital Rotation angle TolX            ....  1.000e-05
 DIIS Error             TolErr          ....  5.000e-07


Diagonalization of the overlap matrix:
Smallest eigenvalue                        ... 2.824e-01
Time for diagonalization                   ...    0.000 sec
Threshold for overlap eigenvalues          ... 1.000e-08
Number of eigenvalues below threshold      ... 0
Time for construction of square roots      ...    0.000 sec
Total time needed                          ...    0.000 sec

---------------------
INITIAL GUESS: MOREAD
---------------------
Guess MOs are being read from file: calc.gbw
Input Geometry matches current geometry (good)
Input basis set matches current basis set (good)
                      ------------------
                      INITIAL GUESS DONE (   0.0 sec)
                      ------------------

 InCore treatment chosen:
   Memory dedicated               ...    2000 MB
   Memory needed                  ...      0 MB
   Number of tiny    integrals    ...       0
   Number of small   integrals    ...       1
   Number of regular integrals    ...      65

--------------
SCF ITERATIONS
--------------
ITER       Energy         Delta-E        Max-DP      RMS-DP      [F,P]     Damp
                      *** Initiating the SOSCF procedure ***
                      *** Re-Reading the Fockian *** 
                      *** Removing any level shift *** 
ITER      Energy       Delta-E        Grad      Rot      Max-DP    RMS-DP
  0     -6.73360511  -6.7336051135  0.000096  0.000096  0.000125  0.000023
  1     -6.73360514  -0.0000000264  0.000035  0.000028  0.000054  0.000013
                 **** Energy Check signals convergence ****
              ***Rediagonalizing the Fockian in SOSCF/NRSCF***

               *****************************************************
               *                     SUCCESS                       *
               *           SCF CONVERGED AFTER   2 CYCLES          *
               *****************************************************


----------------
TOTAL SCF ENERGY
----------------

Total Energy       :           -6.73360515 Eh            -183.23071 eV

Components:
Nuclear Repulsion  :            7.36038246 Eh             200.28619 eV
Electronic Energy  :          -14.09398761 Eh            -383.51690 eV
One Electron Energy:          -23.13057912 Eh            -629.41506 eV
Two Electron Energy:            9.03659151 Eh             245.89816 eV


---------------
SCF CONVERGENCE
---------------

  Last Energy change         ...   -5.7126e-09  Tolerance :   1.0000e-08
  Last MAX-Density change    ...    2.0217e-05  Tolerance :   1.0000e-07
  Last RMS-Density change    ...    7.2740e-06  Tolerance :   5.0000e-09
  Last Orbital Gradient      ...    7.9424e-06  Tolerance :   1.0000e-05
  Last Orbital Rotation      ...    1.7659e-05  Tolerance :   1.0000e-05

             **** THE GBW FILE WAS UPDATED (calc.gbw) ****
             **** DENSITY calc.scfp WAS UPDATED ****
             **** ENERGY FILE WAS UPDATED (calc.en.tmp) ****
             **** THE GBW FILE WAS UPDATED (calc.gbw) ****
             **** DENSITY calc.scfp WAS UPDATED ****
----------------
ORBITAL ENERGIES
----------------

  NO   OCC          E(Eh)            E(eV) 
   0   2.0000      -1.061454       -28.8836 
   1   2.0000      -0.489277       -13.3139 
   2   2.0000      -0.489017       -13.3068 
   3   2.0000      -0.488951       -13.3050 
   4   0.0000       0.171186         4.6582 
   5   0.0000       0.171227         4.6593 
   6   0.0000       0.171400         4.6640 
   7   0.0000       0.190480         5.1832 

                    ********************************
                    * MULLIKEN POPULATION ANALYSIS *
                    ********************************

-----------------------
MULLIKEN ATOMIC CHARGES
-----------------------
   0 C :   -0.429602
   1 H :    0.107452
   2 H :    0.107620
   3 H :    0.107225
   4 H :    0.107305
Sum of atomic charges:    0.0000000

--------------------------------
MULLIKEN REDUCED ORBITAL CHARGES
--------------------------------
  0 C s       :     1.507124  s :     1.507124
      pz      :     0.974155  p :     2.922478
      px      :     0.974202
      py      :     0.974121
  1 H s       :     0.892548  s :     0.892548
  2 H s       :     0.892380  s :     0.892380
  3 H s       :     0.892775  s :     0.892775
  4 H s       :     0.892695  s :     0.892695


                     *******************************
                     * LOEWDIN POPULATION ANALYSIS *
                     *******************************

----------------------
LOEWDIN ATOMIC CHARGES
----------------------
   0 C :   -0.265923
   1 H :    0.066541
   2 H :    0.066639
   3 H :    0.066341
   4 H :    0.066403

-------------------------------
LOEWDIN REDUCED ORBITAL CHARGES
-------------------------------
  0 C s       :     1.230075  s :     1.230075
      pz      :     1.011960  p :     3.035848
      px      :     1.011994
      py      :     1.011894
  1 H s       :     0.933459  s :     0.933459
  2 H s       :     0.933361  s :     0.933361
  3 H s       :     0.933659  s :     0.933659
  4 H s       :     0.933597  s :     0.933597


                      *****************************
                      * MAYER POPULATION ANALYSIS *
                      *****************************

  NA   - Mulliken gross atomic population
  ZA   - Total nuclear charge
  QA   - Mulliken gross atomic charge
  VA   - Mayer's total valence
  BVA  - Mayer's bonded valence
  FA   - Mayer's free valence

  ATOM       NA         ZA         QA         VA         BVA        FA
  0 C      6.8059     4.0000    -2.8059     1.7577    10.8201    -9.0624
  1 H      1.5389     1.0000    -0.5389     0.7096     2.8135    -2.1039
  2 H      1.5391     1.0000    -0.5391     0.7094     2.8142    -2.1048
  3 H      1.5391     1.0000    -0.5391     0.7094     2.8143    -2.1049
  4 H      1.5391     1.0000    -0.5391     0.7094     2.8142    -2.1048

  Mayer bond orders larger than 0.100000
B(  0-C ,  1-H ) :   2.7046 B(  0-C ,  2-H ) :   2.7055 B(  0-C ,  3-H ) :   2.7050 
B(  0-C ,  4-H ) :   2.7050 

-------
TIMINGS
-------

Total SCF time: 0 days 0 hours 0 min 0 sec 

Total time                  ....       0.093 sec
Sum of individual times     ....       0.003 sec  (  3.2%)

Fock matrix formation       ....       0.002 sec  (  2.1%)
Diagonalization             ....       0.000 sec  (  0.1%)
Density matrix formation    ....       0.000 sec  (  0.0%)
Population analysis         ....       0.001 sec  (  0.6%)
Initial guess               ....       0.000 sec  (  0.3%)
Orbital Transformation      ....       0.000 sec  (  0.0%)
Orbital Orthonormalization  ....       0.000 sec  (  0.0%)
DIIS solution               ....       0.000 sec  (  0.0%)
SOSCF solution              ....       0.000 sec  (  0.1%)

Maximum memory used throughout the entire SCF-calculation: 222.8 MB

-------------------------   --------------------
FINAL SINGLE POINT ENERGY        -6.733605145616
-------------------------   --------------------

                                *** OPTIMIZATION RUN DONE ***

                            ***************************************
                            *     ORCA property calculations      *
                            ***************************************

                                    ---------------------
                                    Active property flags
                                    ---------------------
   (+) Dipole Moment


------------------------------------------------------------------------------
                       ORCA ELECTRIC PROPERTIES CALCULATION
------------------------------------------------------------------------------

Dipole Moment Calculation                       ... on
Quadrupole Moment Calculation                   ... off
Polarizability Calculation                      ... off
GBWName                                         ... calc.gbw
Electron density                                ... calc.scfp
The origin for moment calculation is the CENTER OF MASS  = ( 8.110676,  6.914061 -0.002656)

-------------
DIPOLE MOMENT
-------------
                                X             Y             Z
Electronic contribution:      0.00185      -0.00090       0.00411
Nuclear contribution   :     -0.00113       0.00025      -0.00270
                        -----------------------------------------
Total Dipole Moment    :      0.00072      -0.00065       0.00141
                        -----------------------------------------
Magnitude (a.u.)       :      0.00171
Magnitude (Debye)      :      0.00435



--------------------
Rotational spectrum 
--------------------
 
Rotational constants in cm-1:     5.078554     5.074027     5.072802 
Rotational constants in MHz : 152251.232205 152115.503351 152078.773638 

 Dipole components along the rotational axes: 
x,y,z [a.u.] :    -0.000192     0.000326     0.001671 
x,y,z [Debye]:    -0.000487     0.000828     0.004247 

 

Timings for individual modules:

Sum of individual times         ...        0.683 sec (=   0.011 min)
STO integral calculation        ...        0.072 sec (=   0.001 min)  10.6 %
SCF iterations                  ...        0.516 sec (=   0.009 min)  75.5 %
SCF Gradient evaluation         ...        0.036 sec (=   0.001 min)   5.2 %
Geometry relaxation             ...        0.060 sec (=   0.001 min)   8.7 %
                             ****ORCA TERMINATED NORMALLY****
TOTAL RUN TIME: 0 days 0 hours 0 minutes 0 seconds 842 msec
