5
 energy: -4.175128430886 gnorm: 0.000147968928 xtb: 6.5.1 (579679a)
C            4.29014792776588        3.66139116028767       -0.00630983432209
H            4.65507510057864        2.64597169623216        0.00694286619851
H            4.65600403851798        4.15992595401545        0.87802476980212
H            4.64966675074117        4.16697535958682       -0.88537515094054
H            3.20820618239633        3.65973582987790       -0.00228265073801
