5
 energy: -4.174846013020 gnorm: 0.017368182937 xtb: 6.4.1 (afa7bdf)
C         4.29180000000000    3.65880000000000    0.00000000000000
H         4.64850000000000    2.65000000000000    0.00000000000000
H         4.64850000000000    4.16320000000000    0.87070000000000
H         4.64850000000000    4.16320000000000   -0.87970000000000
H         3.22180000000000    3.65880000000000    0.00000000000000
5
 energy: -4.175116539009 gnorm: 0.003698197039 xtb: 6.4.1 (afa7bdf)
C         4.29014524885612    3.66057268346239   -0.00419803394041
H         4.65424896169577    2.64700097827457    0.00494575491668
H         4.65506036743482    4.16094719871394    0.87614836779260
H         4.64971311834783    4.16580559210473   -0.88368995362597
H         3.20993230366545    3.65967354744437   -0.00220613514290
5
 energy: -4.175128307390 gnorm: 0.000490457677 xtb: 6.4.1 (afa7bdf)
C         4.29007079305169    3.66127515741557   -0.00590891923581
H         4.65519335306679    2.64609972563593    0.00669366630157
H         4.65615802343591    4.16004653768190    0.87783035275148
H         4.64960726802247    4.16676354253006   -0.88510156099698
H         3.20807056242314    3.65981503673655   -0.00251353882026
5
 energy: -4.175128429198 gnorm: 0.000147755070 xtb: 6.4.1 (afa7bdf)
C         4.29014791998072    3.66139118593290   -0.00630987903194
H         4.65507515302796    2.64597166100199    0.00694292061586
H         4.65600409072768    4.15992592449427    0.87802482709100
H         4.64966676088877    4.16697539006449   -0.88537520350912
H         3.20820607537487    3.65973583850634   -0.00228266516580
