5
 energy: -4.174846019213 gnorm: 0.017368041996 xtb: 6.5.1 (579679a)
C            4.29180000000000        3.65880000000000        0.00000000000000
H            4.64850000000000        2.65000000000000        0.00000000000000
H            4.64850000000000        4.16320000000000        0.87070000000000
H            4.64850000000000        4.16320000000000       -0.87970000000000
H            3.22180000000000        3.65880000000000        0.00000000000000
5
 energy: -4.175116540958 gnorm: 0.003698163333 xtb: 6.5.1 (579679a)
C            4.29014525870338        3.66057266982376       -0.00419801083155
H            4.65424891799502        2.64700100285086        0.00494572228371
H            4.65506032403359        4.16094721490520        0.87614832987962
H            4.64971310928749        4.16580557391868       -0.88368992131200
H            3.20993238998053        3.65967353850150       -0.00220612001979
5
 energy: -4.175128309079 gnorm: 0.000490458647 xtb: 6.5.1 (579679a)
C            4.29007080317563        3.66127513332840       -0.00590887644508
H            4.65519329715273        2.64609975991350        0.00669361306244
H            4.65615796706867        4.16004656625213        0.87783029606490
H            4.64960725832824        4.16676351392769       -0.88510151158646
H            3.20807067427473        3.65981502657828       -0.00251352109580
5
 energy: -4.175128430885 gnorm: 0.000147756098 xtb: 6.5.1 (579679a)
C            4.29014792776588        3.66139116028767       -0.00630983432209
H            4.65507510057864        2.64597169623216        0.00694286619851
H            4.65600403851798        4.15992595401545        0.87802476980212
H            4.64966675074117        4.16697535958682       -0.88537515094054
H            3.20820618239633        3.65973582987790       -0.00228265073801
