5
 energy: -4.042834161177 gnorm: 0.297008959389 xtb: 6.5.1 (579679a)
C            4.19883759106307        3.92179610211744       -0.00207904389307
H            4.84080121553458        2.10597930154037       -0.00015363213354
H            4.63855030645928        4.26604203286629        0.91139248186120
H            4.63660917701451        4.26338656438025       -0.91747364213463
H            3.14430170992856        3.73679599909564       -0.00068616369994
5
 energy: -4.054001652621 gnorm: 0.012422377125 xtb: 6.5.1 (579679a)
C            4.19164800758116        3.94214399587040       -0.00210343924985
H            4.85160112164357        2.07541611998276       -0.00011406449863
H            4.63856015782910        4.26987335829872        0.91360859064358
H            4.63660951486017        4.26722661518459       -0.91970399827406
H            3.14068119808600        3.73933991066353       -0.00068708862104
5
 energy: -4.054027762081 gnorm: 0.000281814061 xtb: 6.5.1 (579679a)
C            4.19235454896948        3.94013989089753       -0.00209979382294
H            4.85311619442517        2.07114253395094       -0.00011034381012
H            4.63739240786083        4.27181219022945        0.91282190940442
H            4.63544315924888        4.26916597802072       -0.91892039027730
H            3.14079368949565        3.74173940690136       -0.00069138149405
5
 energy: -4.054028063298 gnorm: 0.000159985058 xtb: 6.5.1 (579679a)
C            4.19269018225748        3.93921220153601       -0.00210175190409
H            4.85344503535491        2.07017398916881       -0.00010239959425
H            4.63712183138954        4.27242729343730        0.91273240729457
H            4.63516759229954        4.26979574153254       -0.91883469557847
H            3.14067535869854        3.74239077432534       -0.00069356021776
