5
 energy: -4.129881409233 xtb: 6.5.1 (579679a)
C            4.24835701662260        3.78138453033892       -0.00189851758504
H            4.74115332425935        2.38828035126803       -0.00042380008209
H            4.64696975620651        4.21582313738678        0.89696814916053
H            4.64498353624325        4.21305687433742       -0.90289244821937
H            3.17763636666831        3.69545510666886       -0.00075338327403
5
 energy: -4.121018356650 xtb: 6.5.1 (579679a)
C            4.24237433188446        3.79864602249505       -0.00195536970812
H            4.75342927873752        2.35323001166980       -0.00034947981507
H            4.64617269119514        4.22224009927177        0.89864238257058
H            4.64427774899848        4.21956516205002       -0.90465294676601
H            3.17284594918440        3.70031870451336       -0.00068458628138
5
 energy: -4.112108697969 xtb: 6.5.1 (579679a)
C            4.23624881787773        3.81603031974917       -0.00198458884154
H            4.76583265986993        2.31805207902708       -0.00029376670634
H            4.64519545091520        4.22857000984579        0.90068512297278
H            4.64328821556169        4.22591816724738       -0.90671817571221
H            3.16853485577546        3.70542942413058       -0.00068859171269
5
 energy: -4.103273988814 xtb: 6.5.1 (579679a)
C            4.23031829175029        3.83314872055356       -0.00206253449495
H            4.77825774088929        2.28233294591771       -0.00015537322832
H            4.64404839487059        4.23514475474495        0.90257926051701
H            4.64209164139617        4.23266559940431       -0.90866564244442
H            3.16438393109366        3.71070797937947       -0.00069571034932
5
 energy: -4.094598983713 xtb: 6.5.1 (579679a)
C            4.22387271577570        3.85104693130909       -0.00197151390461
H            4.79076827225192        2.24748125365750       -0.00029850072419
H            4.64313039788460        4.24126873000129        0.90461362234737
H            4.64125747652944        4.23843854425861       -0.91065009603705
H            3.16007113755834        3.71576454077352       -0.00069351168152
5
 energy: -4.086129437790 xtb: 6.5.1 (579679a)
C            4.21802535034857        3.86802924357033       -0.00171630536080
H            4.80328110113008        2.21133053301341       -0.00072984451474
H            4.64164599232245        4.24856640211975        0.90639207258552
H            4.64000959828095        4.24482968328809       -0.91227147173156
H            3.15613795791796        3.72124413800841       -0.00067445097841
5
 energy: -4.077930619278 xtb: 6.5.1 (579679a)
C            4.21163020295217        3.88640902264390       -0.00154188945561
H            4.81536235633865        2.17661851768188       -0.00105103210812
H            4.64065999870755        4.25481713286977        0.90838080682562
H            4.63920639511468        4.25039084198154       -0.91413593178564
H            3.15224104688695        3.72576448482291       -0.00065195347625
5
 energy: -4.070015286765 xtb: 6.5.1 (579679a)
C            4.20535096338277        3.90410629309202       -0.00158233268926
H            4.82789285868111        2.14122642863258       -0.00101452317490
H            4.63948866544802        4.26100353927513        0.91003075062770
H            4.63802882044557        4.25660974289448       -0.91579177301704
H            3.14833869204254        3.73105399610579       -0.00064212174649
5
 energy: -4.062411769829 xtb: 6.5.1 (579679a)
C            4.19883759106307        3.92179610211744       -0.00207904389307
H            4.84080121553458        2.10597930154037       -0.00015363213354
H            4.63855030645928        4.26604203286629        0.91139248186120
H            4.63660917701451        4.26338656438025       -0.91747364213463
H            3.14430170992856        3.73679599909564       -0.00068616369994
5
 energy: -4.055134369874 xtb: 6.5.1 (579679a)
C            4.19269018225748        3.93921220153601       -0.00210175190409
H            4.85344503535491        2.07017398916881       -0.00010239959425
H            4.63712183138954        4.27242729343730        0.91273240729457
H            4.63516759229954        4.26979574153254       -0.91883469557847
H            3.14067535869854        3.74239077432534       -0.00069356021776
