5
 energy: -4.129881404946 xtb: 6.4.1 (afa7bdf)
C         4.24835702228829    3.78138461822868   -0.00189858610588
H         4.74115335901142    2.38828027227360   -0.00042374430351
H         4.64696997982005    4.21582317730847    0.89696793194087
H         4.64498378045769    4.21305698835265   -0.90289224837810
H         3.17763585842255    3.69545494383661   -0.00075335315338
5
 energy: -4.121018354286 xtb: 6.4.1 (afa7bdf)
C         4.24237432888743    3.79864604359545   -0.00195536659859
H         4.75342931815381    2.35322988125659   -0.00034947843126
H         4.64617272224422    4.22224016724507    0.89864246828446
H         4.64427778602872    4.21956520528795   -0.90465303427149
H         3.17284584468582    3.70031870261494   -0.00068458898312
5
 energy: -4.112108698091 xtb: 6.4.1 (afa7bdf)
C         4.23624861991432    3.81603026533718   -0.00198478276608
H         4.76583302152400    2.31805206748635   -0.00029343933895
H         4.64519558527528    4.22856960974148    0.90068511603529
H         4.64328821414876    4.22591832119687   -0.90671829037796
H         3.16853455913765    3.70542973623812   -0.00068860355231
5
 energy: -4.103273974144 xtb: 6.4.1 (afa7bdf)
C         4.23031952457739    3.83314668547374   -0.00206487749165
H         4.77825784067148    2.28233026777982   -0.00015145217781
H         4.64404844178014    4.23514311790447    0.90257821427605
H         4.64208990061524    4.23267103357608   -0.90866603557601
H         3.16438429235574    3.71070889526588   -0.00069584903058
5
 energy: -4.094601083142 xtb: 6.4.1 (afa7bdf)
C         4.22437177690673    3.85122899455780   -0.00222993931486
H         4.78991684502267    2.24720393839947    0.00013537646602
H         4.64314948566398    4.24135248884376    0.90461401104287
H         4.64107036951253    4.23933122230277   -0.91081197422517
H         3.16059152289409    3.71488335589621   -0.00070747396886
5
 energy: -4.086133130643 xtb: 6.4.1 (afa7bdf)
C         4.21763061010595    3.86863553227028   -0.00203458753049
H         4.80329186394026    2.21210438765344   -0.00017808908106
H         4.64206023245800    4.24746175978012    0.90641144409009
H         4.64015525042084    4.24474281487542   -0.91249629865354
H         3.15596204307494    3.72105550542072   -0.00070246882500
5
 energy: -4.077923771971 xtb: 6.4.1 (afa7bdf)
C         4.21144588002857    3.88624557912249   -0.00206528536375
H         4.81576931066026    2.17661214629223   -0.00011908525313
H         4.64087773266302    4.25376871043470    0.90810328560317
H         4.63895894449051    4.25108234066910   -0.91421167261740
H         3.15204813215764    3.72629122348148   -0.00070724236890
5
 energy: -4.070007384790 xtb: 6.4.1 (afa7bdf)
C         4.20496883433505    3.90381910841122   -0.00201402451824
H         4.82871618727120    2.14130371151389   -0.00020411027687
H         4.63968900328875    4.25988174964091    0.90972823404432
H         4.63783559690922    4.25693923086986   -0.91580548368144
H         3.14789037819578    3.73205619956413   -0.00070461556777
5
 energy: -4.062406488136 xtb: 6.4.1 (afa7bdf)
C         4.19875601738207    3.92090955017256   -0.00198870650686
H         4.84172521302012    2.10540819423708   -0.00024687103020
H         4.63829198727987    4.26635869290771    0.91122289859716
H         4.63648217315554    4.26324606511040   -0.91728429783746
H         3.14384460916240    3.73807749757224   -0.00070302322264
5
 energy: -4.055135934302 xtb: 6.4.1 (afa7bdf)
C         4.19249478034365    3.93868816216065   -0.00201707198199
H         4.85422023943946    2.07000806024283   -0.00019814206812
H         4.63700822732184    4.27252261308845    0.91268706339331
H         4.63518861633523    4.26943387896272   -0.91876638874341
H         3.14018813655982    3.74334728554535   -0.00070546059979
