5
 energy: -4.125294739716 gnorm: 0.022594607555 xtb: 6.4.1 (afa7bdf)
C         4.54090809517993    3.65460044140130    0.00523657631180
H         4.51226477890627    2.58204049601822   -0.01529317068221
H         4.51325198814634    4.21141277914646    0.92219999289788
H         4.51455097392021    4.19170634858566   -0.92823098590276
H         3.37812416384725    3.65423993484836    0.00708758737529
5
 energy: -4.125470628872 gnorm: 0.001969825051 xtb: 6.4.1 (afa7bdf)
C         4.54653757948519    3.65357156226333    0.00701884962287
H         4.50791443670987    2.58201976376307   -0.01872485185263
H         4.50890346453814    4.21439396912460    0.92049553041699
H         4.51208226068479    4.19060867995454   -0.92632062779233
H         3.38366225858201    3.65340602489445    0.00853109960510
5
 energy: -4.125477060836 gnorm: 0.000423188389 xtb: 6.4.1 (afa7bdf)
C         4.54705741024084    3.65297168189648    0.00806090167390
H         4.50839337466395    2.58103265094117   -0.02033337415949
H         4.50938414357201    4.21628025156601    0.92054027478503
H         4.51297224573590    4.19052835193546   -0.92618195356261
H         3.38129282578729    3.65318706366088    0.00891415126316
5
 energy: -4.125477336932 gnorm: 0.000170330310 xtb: 6.4.1 (afa7bdf)
C         4.54713961600829    3.65279428131414    0.00836913833255
H         4.50820698563112    2.58125307017229   -0.02097327642833
H         4.50919788902372    4.21672286327450    0.92002821639770
H         4.51340515504725    4.19033709049319   -0.92584999585473
H         3.38115035428963    3.65289269474588    0.00942591755281
