5
 energy: -4.147262610143 xtb: 6.4.1 (afa7bdf)
C         4.48727489829677    3.66524310588986   -0.01320400249554
H         4.54545228841456    2.59030135669219    0.01878996740578
H         4.54641410444840    4.17776481558728    0.93217001710546
H         4.53101952467825    4.19874547006829   -0.94048238810424
H         3.34893918416202    3.66194525176237   -0.00627359391146
5
 energy: -4.145544027791 xtb: 6.4.1 (afa7bdf)
C         4.49423524551752    3.66436206487181   -0.01168007241508
H         4.54123749462944    2.58914506094110    0.01576762037545
H         4.54220195027286    4.18096269971583    0.93165293974242
H         4.52847303765274    4.19837079447825   -0.93982851835881
H         3.35295227192745    3.66115937999301   -0.00491196934397
5
 energy: -4.143797973687 xtb: 6.4.1 (afa7bdf)
C         4.50112294913901    3.66325427152530   -0.00976196970859
H         4.53708626759052    2.58797285824845    0.01222521514048
H         4.53805364770351    4.18461812867210    0.93088821270166
H         4.52590946424312    4.19773171664761   -0.93871509570824
H         3.35692767132384    3.66042302490654   -0.00363636242530
5
 energy: -4.142016775558 xtb: 6.4.1 (afa7bdf)
C         4.50795865160330    3.66205952908956   -0.00769269397905
H         4.53292110820612    2.58685251259515    0.00838970537730
H         4.53389151981890    4.18850090806242    0.92993135474512
H         4.52354879174583    4.19699539648333   -0.93743287803376
H         3.36077992862585    3.65959165376954   -0.00219548810962
5
 energy: -4.140200954177 xtb: 6.4.1 (afa7bdf)
C         4.51473209267937    3.66076822229984   -0.00545552317583
H         4.52876132281508    2.58578101987414    0.00426191004809
H         4.52973487441282    4.19261182173707    0.92878536438931
H         4.52135459097481    4.19614927872923   -0.93596000627497
H         3.36451711911792    3.65868965735972   -0.00063174498659
5
 energy: -4.138352936050 xtb: 6.4.1 (afa7bdf)
C         4.52142921058177    3.65937926514750   -0.00304855394507
H         4.52460932435845    2.58476194498223   -0.00016524528184
H         4.52558612479160    4.19695519164115    0.92744360326611
H         4.51934723192665    4.19519644929868   -0.93430186611200
H         3.36812810834154    3.65770714893043    0.00107206207279
5
 energy: -4.136475025870 xtb: 6.4.1 (afa7bdf)
C         4.52803507387722    3.65789000720909   -0.00046716546681
H         4.52047206439652    2.58379726133880   -0.00489608383535
H         4.52145222419888    4.20153375820052    0.92590218859174
H         4.51753548362590    4.19413740560031   -0.93245932929886
H         3.37160515390148    3.65664156765128    0.00292039000928
5
 energy: -4.134569675493 xtb: 6.4.1 (afa7bdf)
C         4.53453374851859    3.65629800266670    0.00229291048590
H         4.51635515140906    2.58288935896827   -0.00993660932076
H         4.51733877921862    4.20635150405541    0.92415603372761
H         4.51593250092066    4.19297360797426   -0.93043495023177
H         3.37493981993307    3.65548752633536    0.00492261533902
5
 energy: -4.132639419277 xtb: 6.4.1 (afa7bdf)
C         4.54090809517993    3.65460044140130    0.00523657631180
H         4.51226477890627    2.58204049601822   -0.01529317068221
H         4.51325198814634    4.21141277914646    0.92219999289788
H         4.51455097392021    4.19170634858566   -0.92823098590276
H         3.37812416384725    3.65423993484836    0.00708758737529
5
 energy: -4.130686887026 xtb: 6.4.1 (afa7bdf)
C         4.54713961600829    3.65279428131414    0.00836913833255
H         4.50820698563112    2.58125307017229   -0.02097327642833
H         4.50919788902372    4.21672286327450    0.92002821639770
H         4.51340515504725    4.19033709049319   -0.92584999585473
H         3.38115035428963    3.65289269474588    0.00942591755281
