5
 energy: -4.174846013020 gnorm: 0.017368182937 xtb: 6.4.1 (afa7bdf)
C         4.29180000000000    3.65880000000000    0.00000000000000
H         4.64850000000000    2.65000000000000    0.00000000000000
H         4.64850000000000    4.16320000000000    0.87070000000000
H         4.64850000000000    4.16320000000000   -0.87970000000000
H         3.22180000000000    3.65880000000000    0.00000000000000
5
 energy: -4.175208596491 gnorm: 0.002835224558 xtb: 6.4.1 (afa7bdf)
C         4.29181415844314    3.65867398359218   -0.00084913196378
H         4.65194110579014    2.64018616157265   -0.00102226332188
H         4.65271737559191    4.16951508298068    0.87897653147692
H         4.65103843018768    4.16674857564047   -0.88530880443244
H         3.21158892998714    3.65887619621402   -0.00079633175881
5
 energy: -4.175218155993 gnorm: 0.000292909064 xtb: 6.4.1 (afa7bdf)
C         4.29194639578950    3.65868802646493   -0.00130266480574
H         4.65241244201826    2.63831023667483   -0.00116480165479
H         4.65329999225185    4.17071229958254    0.88048716924874
H         4.65158929584532    4.16748421154575   -0.88632085989037
H         3.20985187409508    3.65880522573195   -0.00069884289784
5
 energy: -4.175218216499 gnorm: 0.000066605217 xtb: 6.4.1 (afa7bdf)
C         4.29203295991458    3.65871075606657   -0.00150663558340
H         4.65236662106363    2.63813938839976   -0.00116405185365
H         4.65323102544891    4.17082492930968    0.88058108124383
H         4.65168169489799    4.16756606697042   -0.88636160993911
H         3.20978769867490    3.65875885925357   -0.00054878386767
