5
 energy: -4.125294739703 gnorm: 0.022594608495 xtb: 6.4.1 (afa7bdf)
C         4.54090809494390    3.65460044168071    0.00523657602805
H         4.51226477821309    2.58204049615694   -0.01529317152953
H         4.51325198708975    4.21141277958323    0.92219999230228
H         4.51455097613187    4.19170634891633   -0.92823098682493
H         3.37812416362138    3.65423993366278    0.00708759002414
5
 energy: -4.125470628871 gnorm: 0.001969824356 xtb: 6.4.1 (afa7bdf)
C         4.54653758012280    3.65357156249715    0.00701885004951
H         4.50791443775308    2.58201976317585   -0.01872485009086
H         4.50890346567029    4.21439396769665    0.92049553125938
H         4.51208225790083    4.19060867998863   -0.92632062763083
H         3.38366225855299    3.65340602664172    0.00853109641280
5
 energy: -4.125477060835 gnorm: 0.000423189805 xtb: 6.4.1 (afa7bdf)
C         4.54705740941099    3.65297168243468    0.00806089996822
H         4.50839337419079    2.58103265150926   -0.02033337412090
H         4.50938414298255    4.21628025144064    0.92054027503862
H         4.51297224846846    4.19052835240339   -0.92618195481376
H         3.38129282494720    3.65318706221202    0.00891415392783
5
 energy: -4.125477336933 gnorm: 0.000170331216 xtb: 6.4.1 (afa7bdf)
C         4.54713961647161    3.65279428078776    0.00836913916639
H         4.50820698659838    2.58125306944353   -0.02097327634755
H         4.50919789004101    4.21672286362621    0.92002821675413
H         4.51340515216025    4.19033708964055   -0.92584999396248
H         3.38115035472873    3.65289269650194    0.00942591438952
