5
 energy: -4.125294739692 gnorm: 0.022594608914 xtb: 6.5.1 (579679a)
C            4.54090807156607        3.65460044174746        0.00523657577042
H            4.51226476049525        2.58204059564509       -0.01529316765310
H            4.51325196908653        4.21141272620601        0.92219990829229
H            4.51455094985623        4.19170629855274       -0.92823089938968
H            3.37812424899591        3.65423993784870        0.00708758298008
5
 energy: -4.125470628877 gnorm: 0.001969823858 xtb: 6.5.1 (579679a)
C            4.54653755636059        3.65357156274649        0.00701884878362
H            4.50791441621819        2.58201986358423       -0.01872485049962
H            4.50890344409631        4.21439391789227        0.92049544459702
H            4.51208224154030        4.19060863150741       -0.92632054322511
H            3.38366234178461        3.65340602426960        0.00853110034409
5
 energy: -4.125477060835 gnorm: 0.000423189191 xtb: 6.5.1 (579679a)
C            4.54705738588508        3.65297168278846        0.00806089999207
H            4.50839335608684        2.58103275081170       -0.02033337040125
H            4.50938412481374        4.21628019815925        0.92054019038161
H            4.51297222302392        4.19052830251634       -0.92618186767969
H            3.38129291019041        3.65318706572425        0.00891414770727
5
 energy: -4.125477336932 gnorm: 0.000170331893 xtb: 6.5.1 (579679a)
C            4.54713959276169        3.65279428198192        0.00836913735452
H            4.50820696419041        2.58125317041423       -0.02097327662091
H            4.50919786759893        4.21672281309909        0.92002812961412
H            4.51340513711244        4.19033704135747       -0.92584991039306
H            3.38115043833654        3.65289269314728        0.00942592004534
