5
 energy: -4.125294739709 gnorm: 0.022594607972 xtb: 6.4.1 (afa7bdf)
C         4.54090809503176    3.65460044150897    0.00523657619698
H         4.51226477933781    2.58204049609283   -0.01529317025259
H         4.51325198812822    4.21141277851124    0.92219999278505
H         4.51455097359958    4.19170634849177   -0.92823098587060
H         3.37812416390264    3.65423993539520    0.00708758714116
5
 energy: -4.125470628875 gnorm: 0.001969823631 xtb: 6.4.1 (afa7bdf)
C         4.54653758026468    3.65357156288125    0.00701885009769
H         4.50791443741239    2.58201976318186   -0.01872485010863
H         4.50890346541597    4.21439396753930    0.92049553075074
H         4.51208225934703    4.19060868065012   -0.92632062857056
H         3.38366225755994    3.65340602574747    0.00853109783076
5
 energy: -4.125477060835 gnorm: 0.000423189065 xtb: 6.4.1 (afa7bdf)
C         4.54705740988864    3.65297168190971    0.00806090020308
H         4.50839337475074    2.58103265197325   -0.02033337333846
H         4.50938414341092    4.21628025068074    0.92054027551408
H         4.51297224681328    4.19052835215283   -0.92618195463282
H         3.38129282513642    3.65318706328348    0.00891415225413
5
 energy: -4.125477336933 gnorm: 0.000170330829 xtb: 6.4.1 (afa7bdf)
C         4.54713961626666    3.65279428116781    0.00836913855314
H         4.50820698610849    2.58125306957722   -0.02097327598924
H         4.50919788969850    4.21672286331168    0.92002821662918
H         4.51340515352008    4.19033709038584   -0.92584999496905
H         3.38115035440627    3.65289269555745    0.00942591577597
