5
 energy: -4.147262610166 xtb: 6.5.1 (579679a)
C            4.48727488012670        3.66524310619760       -0.01320400314934
H            4.54545226539137        2.59030145634695        0.01878996759373
H            4.54641408122584        4.17776476535169        0.93216993122952
H            4.53101950294481        4.19874542080961       -0.94048230266378
H            3.34893927031128        3.66194525129415       -0.00627359301011
5
 energy: -4.145544027784 xtb: 6.5.1 (579679a)
C            4.49423522670249        3.66436206430396       -0.01168007158683
H            4.54123747149459        2.58914516018835        0.01576761834020
H            4.54220192699411        4.18096265164162        0.93165285311065
H            4.52847301546567        4.19837074416178       -0.93982843102658
H            3.35295235934314        3.66115937970429       -0.00491196883744
5
 energy: -4.143797973704 xtb: 6.5.1 (579679a)
C            4.50112292957997        3.66325427108600       -0.00976196913741
H            4.53708624507353        2.58797295756599        0.01222521405930
H            4.53805362513160        4.18461807978838        0.93088812629421
H            4.52590944197386        4.19773166666264       -0.93871500867311
H            3.35692775824103        3.66042302489700       -0.00363636254300
5
 energy: -4.142016775636 xtb: 6.5.1 (579679a)
C            4.50795863127951        3.66205952890973       -0.00769269383910
H            4.53292108605443        2.58685261242101        0.00838970516399
H            4.53389149762949        4.18850085817519        0.92993126829057
H            4.52354877038173        4.19699534699542       -0.93743279181613
H            3.36078001465483        3.65959165349864       -0.00219548779932
5
 energy: -4.140200954129 xtb: 6.5.1 (579679a)
C            4.51473207226713        3.66076822228850       -0.00545552308042
H            4.52876130092801        2.58578111942775        0.00426190954194
H            4.52973485240606        4.19261177212958        0.92878527829395
H            4.52135456957705        4.19614922888985       -0.93595991990539
H            3.36451720482173        3.65868965726431       -0.00063174485008
5
 energy: -4.138352936162 xtb: 6.5.1 (579679a)
C            4.52142918874496        3.65937926510478       -0.00304855408476
H            4.52460930428104        2.58476204450370       -0.00016524288373
H            4.52558610468934        4.19695513966504        0.92744351844806
H            4.51934720796436        4.19519639991596       -0.93430178010158
H            3.36812819432029        3.65770715081051        0.00107205862201
5
 energy: -4.136475025623 xtb: 6.5.1 (579679a)
C            4.52803505295854        3.65789000715923       -0.00046716551540
H            4.52047204282714        2.58379736054484       -0.00489608487987
H            4.52145220105176        4.20153370861170        0.92590210179288
H            4.51753546403579        4.19413735615285       -0.93245924394484
H            3.37160523912678        3.65664156753138        0.00292039254724
5
 energy: -4.134569675332 xtb: 6.5.1 (579679a)
C            4.53453372661684        3.65629800295375        0.00229291044547
H            4.51635512970455        2.58288945859606       -0.00993660948454
H            4.51733875827755        4.20635145443599        0.92415594753513
H            4.51593248047977        4.19297355857726       -0.93043486389334
H            3.37493990492128        3.65548752543694        0.00492261539728
5
 energy: -4.132639419410 xtb: 6.5.1 (579679a)
C            4.54090807156607        3.65460044174746        0.00523657577042
H            4.51226476049525        2.58204059564509       -0.01529316765310
H            4.51325196908653        4.21141272620601        0.92219990829229
H            4.51455094985623        4.19170629855274       -0.92823089938968
H            3.37812424899591        3.65423993784870        0.00708758298008
5
 energy: -4.130686886903 xtb: 6.5.1 (579679a)
C            4.54713959276169        3.65279428198192        0.00836913735452
H            4.50820696419041        2.58125317041423       -0.02097327662091
H            4.50919786759893        4.21672281309909        0.92002812961412
H            4.51340513711244        4.19033704135747       -0.92584991039306
H            3.38115043833654        3.65289269314728        0.00942592004534
