5
 energy: -4.147262610143 xtb: 6.4.1 (afa7bdf)
C         4.48727489829677    3.66524310588986   -0.01320400249554
H         4.54545228841456    2.59030135669219    0.01878996740578
H         4.54641410444840    4.17776481558728    0.93217001710546
H         4.53101952467825    4.19874547006829   -0.94048238810424
H         3.34893918416202    3.66194525176237   -0.00627359391146
5
 energy: -4.145544027791 xtb: 6.4.1 (afa7bdf)
C         4.49423524551752    3.66436206487181   -0.01168007241508
H         4.54123749462944    2.58914506094110    0.01576762037545
H         4.54220195027286    4.18096269971583    0.93165293974242
H         4.52847303765274    4.19837079447825   -0.93982851835881
H         3.35295227192745    3.66115937999301   -0.00491196934397
5
 energy: -4.143797973687 xtb: 6.4.1 (afa7bdf)
C         4.50112294913901    3.66325427152536   -0.00976196970855
H         4.53708626759034    2.58797285824852    0.01222521514048
H         4.53805364770369    4.18461812867218    0.93088821270175
H         4.52590946424313    4.19773171664764   -0.93871509570824
H         3.35692767132383    3.66042302490630   -0.00363636242544
5
 energy: -4.142016775558 xtb: 6.4.1 (afa7bdf)
C         4.50795865160342    3.66205952908954   -0.00769269397910
H         4.53292110820619    2.58685251259503    0.00838970537749
H         4.53389151981884    4.18850090806228    0.92993135474528
H         4.52354879174556    4.19699539648339   -0.93743287803389
H         3.36077992862600    3.65959165376976   -0.00219548810978
5
 energy: -4.140200954161 xtb: 6.4.1 (afa7bdf)
C         4.51473209274160    3.66076822244383   -0.00545552335450
H         4.52876132282201    2.58578101986935    0.00426191009681
H         4.52973487444249    4.19261182168782    0.92878536438433
H         4.52135459089304    4.19614927861113   -0.93596000605348
H         3.36451711910085    3.65868965738787   -0.00063174507316
5
 energy: -4.138352936056 xtb: 6.4.1 (afa7bdf)
C         4.52142921052986    3.65937926490897   -0.00304855392068
H         4.52460932486624    2.58476194503823   -0.00016524424900
H         4.52558612539948    4.19695519087829    0.92744360353772
H         4.51934723077436    4.19519644952452   -0.93430186603051
H         3.36812810843005    3.65770714964999    0.00107206066247
5
 energy: -4.136475025651 xtb: 6.4.1 (afa7bdf)
C         4.52803507479052    3.65789000712479   -0.00046716540352
H         4.52047206321812    2.58379726074201   -0.00489608593487
H         4.52145222198716    4.20153375985613    0.92590218778750
H         4.51753548639895    4.19413740598067   -0.93245933049210
H         3.37160515360524    3.65664156629641    0.00292039404299
5
 energy: -4.134569675345 xtb: 6.4.1 (afa7bdf)
C         4.53453374895123    3.65629800228312    0.00229291156633
H         4.51635515268086    2.58288935860669   -0.00993660815470
H         4.51733878098192    4.20635150335033    0.92415603482305
H         4.51593249676153    4.19297360713713   -0.93043494877771
H         3.37493982062445    3.65548752862273    0.00492261054302
5
 energy: -4.132639419344 xtb: 6.4.1 (afa7bdf)
C         4.54090809494390    3.65460044168071    0.00523657602805
H         4.51226477821309    2.58204049615694   -0.01529317152953
H         4.51325198708975    4.21141277958323    0.92219999230228
H         4.51455097613187    4.19170634891633   -0.92823098682493
H         3.37812416362138    3.65423993366278    0.00708759002414
5
 energy: -4.130686886873 xtb: 6.4.1 (afa7bdf)
C         4.54713961647161    3.65279428078776    0.00836913916639
H         4.50820698659838    2.58125306944353   -0.02097327634755
H         4.50919789004101    4.21672286362621    0.92002821675413
H         4.51340515216025    4.19033708964055   -0.92584999396248
H         3.38115035472873    3.65289269650194    0.00942591438952
