5
 energy: -4.147262610143 xtb: 6.4.1 (afa7bdf)
C         4.48727489829677    3.66524310588986   -0.01320400249554
H         4.54545228841456    2.59030135669219    0.01878996740578
H         4.54641410444840    4.17776481558728    0.93217001710546
H         4.53101952467825    4.19874547006829   -0.94048238810424
H         3.34893918416202    3.66194525176237   -0.00627359391146
5
 energy: -4.145544027791 xtb: 6.4.1 (afa7bdf)
C         4.49423524551752    3.66436206487181   -0.01168007241508
H         4.54123749462944    2.58914506094110    0.01576762037545
H         4.54220195027286    4.18096269971583    0.93165293974242
H         4.52847303765274    4.19837079447825   -0.93982851835881
H         3.35295227192745    3.66115937999301   -0.00491196934397
5
 energy: -4.143797973687 xtb: 6.4.1 (afa7bdf)
C         4.50112294913901    3.66325427152530   -0.00976196970859
H         4.53708626759052    2.58797285824845    0.01222521514048
H         4.53805364770351    4.18461812867210    0.93088821270166
H         4.52590946424312    4.19773171664761   -0.93871509570824
H         3.35692767132384    3.66042302490654   -0.00363636242530
5
 energy: -4.142016775558 xtb: 6.4.1 (afa7bdf)
C         4.50795865160327    3.66205952908960   -0.00769269397886
H         4.53292110820596    2.58685251259507    0.00838970537738
H         4.53389151981909    4.18850090806248    0.92993135474518
H         4.52354879174576    4.19699539648350   -0.93743287803387
H         3.36077992862592    3.65959165376935   -0.00219548810982
5
 energy: -4.140200954162 xtb: 6.4.1 (afa7bdf)
C         4.51473209274125    3.66076822244288   -0.00545552335456
H         4.52876132282304    2.58578101986935    0.00426191009608
H         4.52973487444179    4.19261182168814    0.92878536438420
H         4.52135459089348    4.19614927861068   -0.93596000605345
H         3.36451711910044    3.65868965738895   -0.00063174507227
5
 energy: -4.138352936061 xtb: 6.4.1 (afa7bdf)
C         4.52142921048460    3.65937926506874   -0.00304855402200
H         4.52460932525142    2.58476194516277   -0.00016524331927
H         4.52558612581875    4.19695518997761    0.92744360385105
H         4.51934722992438    4.19519644958882   -0.93430186615512
H         3.36812810852085    3.65770715020206    0.00107205964534
5
 energy: -4.136475025705 xtb: 6.4.1 (afa7bdf)
C         4.52803507456167    3.65789000714182   -0.00046716530854
H         4.52047206385343    2.58379726056158   -0.00489608590206
H         4.52145222204999    4.20153375961620    0.92590218782828
H         4.51753548585426    4.19413740557535   -0.93245933017729
H         3.37160515368065    3.65664156710505    0.00292039355961
5
 energy: -4.134569675330 xtb: 6.4.1 (afa7bdf)
C         4.53453374903756    3.65629800256347    0.00229291095497
H         4.51635515162577    2.58288935842655   -0.00993660869363
H         4.51733878024501    4.20635150410213    0.92415603464942
H         4.51593249862059    4.19297360780478   -0.93043494955466
H         3.37493982047107    3.65548752710308    0.00492261264390
5
 energy: -4.132639419317 xtb: 6.4.1 (afa7bdf)
C         4.54090809503176    3.65460044150897    0.00523657619698
H         4.51226477933781    2.58204049609283   -0.01529317025259
H         4.51325198812822    4.21141277851124    0.92219999278505
H         4.51455097359958    4.19170634849177   -0.92823098587060
H         3.37812416390264    3.65423993539520    0.00708758714116
5
 energy: -4.130686886957 xtb: 6.4.1 (afa7bdf)
C         4.54713961626666    3.65279428116781    0.00836913855314
H         4.50820698610849    2.58125306957722   -0.02097327598924
H         4.50919788969850    4.21672286331168    0.92002821662918
H         4.51340515352008    4.19033709038584   -0.92584999496905
H         3.38115035440627    3.65289269555745    0.00942591577597
