 Entering Gaussian System, Link 0=g16
 Input=calc.com
 Output=calc.log
 Initial command:
 /binaries/g16/l1.exe "/calcus/scratch/scr/QVrKE5AJMadqG/Gau-29.inp" -scrdir="/calcus/scratch/scr/QVrKE5AJMadqG/"
 Entering Link 1 = /binaries/g16/l1.exe PID=        31.
  
 Copyright (c) 1988-2019, Gaussian, Inc.  All Rights Reserved.
  
 This is part of the Gaussian(R) 16 program.  It is based on
 the Gaussian(R) 09 system (copyright 2009, Gaussian, Inc.),
 the Gaussian(R) 03 system (copyright 2003, Gaussian, Inc.),
 the Gaussian(R) 98 system (copyright 1998, Gaussian, Inc.),
 the Gaussian(R) 94 system (copyright 1995, Gaussian, Inc.),
 the Gaussian 92(TM) system (copyright 1992, Gaussian, Inc.),
 the Gaussian 90(TM) system (copyright 1990, Gaussian, Inc.),
 the Gaussian 88(TM) system (copyright 1988, Gaussian, Inc.),
 the Gaussian 86(TM) system (copyright 1986, Carnegie Mellon
 University), and the Gaussian 82(TM) system (copyright 1983,
 Carnegie Mellon University). Gaussian is a federally registered
 trademark of Gaussian, Inc.
  
 This software contains proprietary and confidential information,
 including trade secrets, belonging to Gaussian, Inc.
  
 This software is provided under written license and may be
 used, copied, transmitted, or stored only in accord with that
 written license.
  
 The following legend is applicable only to US Government
 contracts under FAR:
  
                    RESTRICTED RIGHTS LEGEND
  
 Use, reproduction and disclosure by the US Government is
 subject to restrictions as set forth in subparagraphs (a)
 and (c) of the Commercial Computer Software - Restricted
 Rights clause in FAR 52.227-19.
  
 Gaussian, Inc.
 340 Quinnipiac St., Bldg. 40, Wallingford CT 06492
  
  
 ---------------------------------------------------------------
 Warning -- This program may not be used in any manner that
 competes with the business of Gaussian, Inc. or will provide
 assistance to any competitor of Gaussian, Inc.  The licensee
 of this program is prohibited from giving any competitor of
 Gaussian, Inc. access to this program.  By using this program,
 the user acknowledges that Gaussian, Inc. is engaged in the
 business of creating and licensing software in the field of
 computational chemistry and represents and warrants to the
 licensee that it is not a competitor of Gaussian, Inc. and that
 it will not use this program in any manner prohibited above.
 ---------------------------------------------------------------
  

 Cite this work as:
 Gaussian 16, Revision C.01,
 M. J. Frisch, G. W. Trucks, H. B. Schlegel, G. E. Scuseria, 
 M. A. Robb, J. R. Cheeseman, G. Scalmani, V. Barone, 
 G. A. Petersson, H. Nakatsuji, X. Li, M. Caricato, A. V. Marenich, 
 J. Bloino, B. G. Janesko, R. Gomperts, B. Mennucci, H. P. Hratchian, 
 J. V. Ortiz, A. F. Izmaylov, J. L. Sonnenberg, D. Williams-Young, 
 F. Ding, F. Lipparini, F. Egidi, J. Goings, B. Peng, A. Petrone, 
 T. Henderson, D. Ranasinghe, V. G. Zakrzewski, J. Gao, N. Rega, 
 G. Zheng, W. Liang, M. Hada, M. Ehara, K. Toyota, R. Fukuda, 
 J. Hasegawa, M. Ishida, T. Nakajima, Y. Honda, O. Kitao, H. Nakai, 
 T. Vreven, K. Throssell, J. A. Montgomery, Jr., J. E. Peralta, 
 F. Ogliaro, M. J. Bearpark, J. J. Heyd, E. N. Brothers, K. N. Kudin, 
 V. N. Staroverov, T. A. Keith, R. Kobayashi, J. Normand, 
 K. Raghavachari, A. P. Rendell, J. C. Burant, S. S. Iyengar, 
 J. Tomasi, M. Cossi, J. M. Millam, M. Klene, C. Adamo, R. Cammi, 
 J. W. Ochterski, R. L. Martin, K. Morokuma, O. Farkas, 
 J. B. Foresman, and D. J. Fox, Gaussian, Inc., Wallingford CT, 2019.
 
 ******************************************
 Gaussian 16:  ES64L-G16RevC.01  3-Jul-2019
                16-Feb-2023 
 ******************************************
 %chk=in.chk
 %nproc=4
 Will use up to    4 processors via shared memory.
 %mem=2000MB
 ---------------------
 #p opt M062X/Def2TZVP
 ---------------------
 1/18=20,19=15,26=3,38=1/1,3;
 2/9=110,12=2,17=6,18=5,40=1/2;
 3/5=44,7=101,11=2,25=1,30=1,71=1,74=-55/1,2,3;
 4//1;
 5/5=2,38=5/2;
 6/7=2,8=2,9=2,10=2,28=1/1;
 7//1,2,3,16;
 1/18=20,19=15,26=3/3(2);
 2/9=110/2;
 99//99;
 2/9=110/2;
 3/5=44,7=101,11=2,25=1,30=1,71=1,74=-55/1,2,3;
 4/5=5,16=3,69=1/1;
 5/5=2,38=5/2;
 7//1,2,3,16;
 1/18=20,19=15,26=3/3(-5);
 2/9=110/2;
 6/7=2,8=2,9=2,10=2,19=2,28=1/1;
 99/9=1/99;
 Leave Link    1 at Thu Feb 16 11:38:51 2023, MaxMem=   262144000 cpu:               0.0 elap:               0.0
 (Enter /binaries/g16/l101.exe)
 -----------------------
 File created by ccinput
 -----------------------
 Symbolic Z-matrix:
 Charge =  0 Multiplicity = 1
 C                     4.2918    3.6588    0. 
 H                     4.6485    2.65      0. 
 H                     4.6485    4.1632    0.8707 
 H                     4.6485    4.1632   -0.8797 
 H                     3.2218    3.6588    0. 
 
 ITRead=  0  0  0  0  0
 MicOpt= -1 -1 -1 -1 -1
 NAtoms=      5 NQM=        5 NQMF=       0 NMMI=      0 NMMIF=      0
                NMic=       0 NMicF=      0.
                    Isotopes and Nuclear Properties:
 (Nuclear quadrupole moments (NQMom) in fm**2, nuclear magnetic moments (NMagM)
  in nuclear magnetons)

  Atom         1           2           3           4           5
 IAtWgt=          12           1           1           1           1
 AtmWgt=  12.0000000   1.0078250   1.0078250   1.0078250   1.0078250
 NucSpn=           0           1           1           1           1
 AtZEff=  -0.0000000  -0.0000000  -0.0000000  -0.0000000  -0.0000000
 NQMom=    0.0000000   0.0000000   0.0000000   0.0000000   0.0000000
 NMagM=    0.0000000   2.7928460   2.7928460   2.7928460   2.7928460
 AtZNuc=   6.0000000   1.0000000   1.0000000   1.0000000   1.0000000
 Leave Link  101 at Thu Feb 16 11:38:51 2023, MaxMem=   262144000 cpu:               0.2 elap:               0.1
 (Enter /binaries/g16/l103.exe)

 GradGradGradGradGradGradGradGradGradGradGradGradGradGradGradGradGradGrad
 Berny optimization.
 Initialization pass.
                           ----------------------------
                           !    Initial Parameters    !
                           ! (Angstroms and Degrees)  !
 --------------------------                            --------------------------
 ! Name  Definition              Value          Derivative Info.                !
 --------------------------------------------------------------------------------
 ! R1    R(1,2)                  1.07           estimate D2E/DX2                !
 ! R2    R(1,3)                  1.0676         estimate D2E/DX2                !
 ! R3    R(1,4)                  1.075          estimate D2E/DX2                !
 ! R4    R(1,5)                  1.07           estimate D2E/DX2                !
 ! A1    A(2,1,3)              109.5151         estimate D2E/DX2                !
 ! A2    A(2,1,4)              109.3762         estimate D2E/DX2                !
 ! A3    A(2,1,5)              109.473          estimate D2E/DX2                !
 ! A4    A(3,1,4)              109.5644         estimate D2E/DX2                !
 ! A5    A(3,1,5)              109.5186         estimate D2E/DX2                !
 ! A6    A(4,1,5)              109.3798         estimate D2E/DX2                !
 ! D1    D(2,1,4,3)           -120.0525         estimate D2E/DX2                !
 ! D2    D(2,1,5,3)            120.0839         estimate D2E/DX2                !
 ! D3    D(2,1,5,4)           -119.829          estimate D2E/DX2                !
 ! D4    D(3,1,5,4)            120.0871         estimate D2E/DX2                !
 --------------------------------------------------------------------------------
 Trust Radius=3.00D-01 FncErr=1.00D-07 GrdErr=1.00D-06 EigMax=2.50D+02 EigMin=1.00D-04
 Number of steps in this run=     24 maximum allowed number of steps=    100.
 GradGradGradGradGradGradGradGradGradGradGradGradGradGradGradGradGradGrad

 Leave Link  103 at Thu Feb 16 11:38:51 2023, MaxMem=   262144000 cpu:               0.0 elap:               0.0
 (Enter /binaries/g16/l202.exe)
                          Input orientation:                          
 ---------------------------------------------------------------------
 Center     Atomic      Atomic             Coordinates (Angstroms)
 Number     Number       Type             X           Y           Z
 ---------------------------------------------------------------------
      1          6           0        4.291800    3.658800    0.000000
      2          1           0        4.648500    2.650000    0.000000
      3          1           0        4.648500    4.163200    0.870700
      4          1           0        4.648500    4.163200   -0.879700
      5          1           0        3.221800    3.658800    0.000000
 ---------------------------------------------------------------------
                    Distance matrix (angstroms):
                    1          2          3          4          5
     1  C    0.000000
     2  H    1.070006   0.000000
     3  H    1.067601   1.745822   0.000000
     4  H    1.074954   1.750327   1.750400   0.000000
     5  H    1.070000   1.747327   1.745855   1.750361   0.000000
 Stoichiometry    CH4
 Framework group  C1[X(CH4)]
 Deg. of freedom     9
 Full point group                 C1      NOp   1
 Largest Abelian subgroup         C1      NOp   1
 Largest concise Abelian subgroup C1      NOp   1
                         Standard orientation:                         
 ---------------------------------------------------------------------
 Center     Atomic      Atomic             Coordinates (Angstroms)
 Number     Number       Type             X           Y           Z
 ---------------------------------------------------------------------
      1          6           0       -0.000767    0.000001    0.000472
      2          1           0       -0.325680   -0.869163   -0.532348
      3          1           0       -0.412253   -0.010991    0.985525
      4          1           0        1.072605    0.002075    0.058743
      5          1           0       -0.330072    0.878070   -0.514750
 ---------------------------------------------------------------------
 Rotational constants (GHZ):         164.4303219         163.9529333         163.7655362
 Leave Link  202 at Thu Feb 16 11:38:51 2023, MaxMem=   262144000 cpu:               0.0 elap:               0.0
 (Enter /binaries/g16/l301.exe)
 Standard basis: def2TZVP (5D, 7F)
 Ernie: Thresh=  0.10000D-02 Tol=  0.10000D-05 Strict=F.
 There are    60 symmetry adapted cartesian basis functions of A   symmetry.
 There are    55 symmetry adapted basis functions of A   symmetry.
    55 basis functions,    83 primitive gaussians,    60 cartesian basis functions
     5 alpha electrons        5 beta electrons
       nuclear repulsion energy        13.6784087271 Hartrees.
 IExCor= 4336 DFT=T Ex+Corr=M062X ExCW=0 ScaHFX=  0.540000
 ScaDFX=  1.000000  1.000000  1.000000  1.000000 ScalE2=  1.000000  1.000000
 IRadAn=      5 IRanWt=     -1 IRanGd=            0 ICorTp=0 IEmpDi=  4
 NAtoms=    5 NActive=    5 NUniq=    5 SFac= 1.00D+00 NAtFMM=   60 NAOKFM=F Big=F
 Integral buffers will be    131072 words long.
 Raffenetti 2 integral format.
 Two-electron integral symmetry is turned on.
 Leave Link  301 at Thu Feb 16 11:38:51 2023, MaxMem=   262144000 cpu:               0.1 elap:               0.0
 (Enter /binaries/g16/l302.exe)
 NPDir=0 NMtPBC=     1 NCelOv=     1 NCel=       1 NClECP=     1 NCelD=      1
         NCelK=      1 NCelE2=     1 NClLst=     1 CellRange=     0.0.
 One-electron integrals computed using PRISM.
 One-electron integral symmetry used in STVInt
   1 Symmetry operations used in ECPInt.
 ECPInt:  NShTT=     378 NPrTT=    1024 LenC2=     379 LenP2D=     994.
 LDataN:  DoStor=T MaxTD1= 6 Len=  172
 NBasis=    55 RedAO= T EigKep=  1.34D-03  NBF=    55
 NBsUse=    55 1.00D-06 EigRej= -1.00D+00 NBFU=    55
 Precomputing XC quadrature grid using
 IXCGrd= 4 IRadAn=           5 IRanWt=          -1 IRanGd=           0 AccXCQ= 0.00D+00.
 Generated NRdTot=       0 NPtTot=           0 NUsed=           0 NTot=          32
 NSgBfM=    60    60    60    60    60 MxSgAt=     5 MxSgA2=     5.
 Leave Link  302 at Thu Feb 16 11:38:51 2023, MaxMem=   262144000 cpu:               0.3 elap:               0.1
 (Enter /binaries/g16/l303.exe)
 DipDrv:  MaxL=1.
 Leave Link  303 at Thu Feb 16 11:38:51 2023, MaxMem=   262144000 cpu:               0.0 elap:               0.0
 (Enter /binaries/g16/l401.exe)
 ExpMin= 9.52D-02 ExpMax= 1.36D+04 ExpMxC= 4.63D+02 IAcc=3 IRadAn=         5 AccDes= 0.00D+00
 Harris functional with IExCor= 1009 and IRadAn=       5 diagonalized for initial guess.
 HarFok:  IExCor= 1009 AccDes= 0.00D+00 IRadAn=         5 IDoV= 1 UseB2=F ITyADJ=14
 ICtDFT=  3500011 ScaDFX=  1.000000  1.000000  1.000000  1.000000
 FoFCou: FMM=F IPFlag=           0 FMFlag=      100000 FMFlg1=           0
         NFxFlg=           0 DoJE=T BraDBF=F KetDBF=T FulRan=T
         wScrn=  0.000000 ICntrl=       500 IOpCl=  0 I1Cent=   200000004 NGrid=           0
         NMat0=    1 NMatS0=      1 NMatT0=    0 NMatD0=    1 NMtDS0=    0 NMtDT0=    0
 Petite list used in FoFCou.
 Harris En= -40.5445621066301    
 JPrj=0 DoOrth=F DoCkMO=F.
 Leave Link  401 at Thu Feb 16 11:38:51 2023, MaxMem=   262144000 cpu:               0.5 elap:               0.1
 (Enter /binaries/g16/l502.exe)
 Keep R1 ints in memory in canonical form, NReq=4730578.
 FoFCou: FMM=F IPFlag=           0 FMFlag=           0 FMFlg1=           0
         NFxFlg=           0 DoJE=F BraDBF=F KetDBF=F FulRan=T
         wScrn=  0.000000 ICntrl=       600 IOpCl=  0 I1Cent=           0 NGrid=           0
         NMat0=    1 NMatS0=   1540 NMatT0=    0 NMatD0=    1 NMtDS0=    0 NMtDT0=    0
 Symmetry not used in FoFCou.
 Two-electron integral symmetry not used.
 Closed shell SCF:
 Using DIIS extrapolation, IDIIS=  1040.
 NGot=   262144000 LenX=   260948992 LenY=   260944951
 Requested convergence on RMS density matrix=1.00D-08 within 128 cycles.
 Requested convergence on MAX density matrix=1.00D-06.
 Requested convergence on             energy=1.00D-06.
 No special actions if energy rises.
 Integral accuracy reduced to 1.0D-05 until final iterations.

 Cycle   1  Pass 0  IDiag  1:
 E= -40.3959592353599    
 DIIS: error= 6.15D-02 at cycle   1 NSaved=   1.
 NSaved= 1 IEnMin= 1 EnMin= -40.3959592353599     IErMin= 1 ErrMin= 6.15D-02
 ErrMax= 6.15D-02  0.00D+00 EMaxC= 1.00D-01 BMatC= 1.08D-01 BMatP= 1.08D-01
 IDIUse=3 WtCom= 3.85D-01 WtEn= 6.15D-01
 Coeff-Com:  0.100D+01
 Coeff-En:   0.100D+01
 Coeff:      0.100D+01
 Gap=     0.451 Goal=   None    Shift=    0.000
 GapD=    0.451 DampG=2.000 DampE=0.500 DampFc=1.0000 IDamp=-1.
 RMSDP=5.79D-03 MaxDP=7.85D-02              OVMax= 1.77D-01

 Cycle   2  Pass 0  IDiag  1:
 E= -40.4286952685939     Delta-E=       -0.032736033234 Rises=F Damp=F
 DIIS: error= 5.36D-02 at cycle   2 NSaved=   2.
 NSaved= 2 IEnMin= 2 EnMin= -40.4286952685939     IErMin= 2 ErrMin= 5.36D-02
 ErrMax= 5.36D-02  0.00D+00 EMaxC= 1.00D-01 BMatC= 6.94D-02 BMatP= 1.08D-01
 IDIUse=3 WtCom= 4.64D-01 WtEn= 5.36D-01
 Coeff-Com:  0.444D+00 0.556D+00
 Coeff-En:   0.395D+00 0.605D+00
 Coeff:      0.417D+00 0.583D+00
 Gap=     0.548 Goal=   None    Shift=    0.000
 RMSDP=2.73D-03 MaxDP=3.86D-02 DE=-3.27D-02 OVMax= 8.50D-02

 Cycle   3  Pass 0  IDiag  1:
 E= -40.4990667734358     Delta-E=       -0.070371504842 Rises=F Damp=F
 DIIS: error= 4.13D-03 at cycle   3 NSaved=   3.
 NSaved= 3 IEnMin= 3 EnMin= -40.4990667734358     IErMin= 3 ErrMin= 4.13D-03
 ErrMax= 4.13D-03  0.00D+00 EMaxC= 1.00D-01 BMatC= 4.36D-04 BMatP= 6.94D-02
 IDIUse=3 WtCom= 9.59D-01 WtEn= 4.13D-02
 Coeff-Com: -0.160D-01 0.559D-01 0.960D+00
 Coeff-En:   0.000D+00 0.000D+00 0.100D+01
 Coeff:     -0.153D-01 0.536D-01 0.962D+00
 Gap=     0.547 Goal=   None    Shift=    0.000
 RMSDP=1.93D-04 MaxDP=2.83D-03 DE=-7.04D-02 OVMax= 6.24D-03

 Cycle   4  Pass 0  IDiag  1:
 E= -40.4994799311044     Delta-E=       -0.000413157669 Rises=F Damp=F
 DIIS: error= 6.85D-05 at cycle   4 NSaved=   4.
 NSaved= 4 IEnMin= 4 EnMin= -40.4994799311044     IErMin= 4 ErrMin= 6.85D-05
 ErrMax= 6.85D-05  0.00D+00 EMaxC= 1.00D-01 BMatC= 2.10D-07 BMatP= 4.36D-04
 IDIUse=1 WtCom= 1.00D+00 WtEn= 0.00D+00
 Coeff-Com: -0.108D-03-0.314D-02-0.193D-01 0.102D+01
 Coeff:     -0.108D-03-0.314D-02-0.193D-01 0.102D+01
 Gap=     0.547 Goal=   None    Shift=    0.000
 RMSDP=6.29D-06 MaxDP=1.31D-04 DE=-4.13D-04 OVMax= 1.46D-04

 Initial convergence to 1.0D-05 achieved.  Increase integral accuracy.
 Cycle   5  Pass 1  IDiag  1:
 E= -40.4994902170088     Delta-E=       -0.000010285904 Rises=F Damp=F
 DIIS: error= 2.00D-05 at cycle   1 NSaved=   1.
 NSaved= 1 IEnMin= 1 EnMin= -40.4994902170088     IErMin= 1 ErrMin= 2.00D-05
 ErrMax= 2.00D-05  0.00D+00 EMaxC= 1.00D-01 BMatC= 2.71D-08 BMatP= 2.71D-08
 IDIUse=1 WtCom= 1.00D+00 WtEn= 0.00D+00
 Coeff-Com:  0.100D+01
 Coeff:      0.100D+01
 Gap=     0.547 Goal=   None    Shift=    0.000
 RMSDP=6.29D-06 MaxDP=1.31D-04 DE=-1.03D-05 OVMax= 4.85D-05

 Cycle   6  Pass 1  IDiag  1:
 E= -40.4994902347243     Delta-E=       -0.000000017716 Rises=F Damp=F
 DIIS: error= 1.24D-05 at cycle   2 NSaved=   2.
 NSaved= 2 IEnMin= 2 EnMin= -40.4994902347243     IErMin= 2 ErrMin= 1.24D-05
 ErrMax= 1.24D-05  0.00D+00 EMaxC= 1.00D-01 BMatC= 3.96D-09 BMatP= 2.71D-08
 IDIUse=1 WtCom= 1.00D+00 WtEn= 0.00D+00
 Coeff-Com:  0.208D+00 0.792D+00
 Coeff:      0.208D+00 0.792D+00
 Gap=     0.547 Goal=   None    Shift=    0.000
 RMSDP=9.70D-07 MaxDP=1.32D-05 DE=-1.77D-08 OVMax= 2.95D-05

 Cycle   7  Pass 1  IDiag  1:
 E= -40.4994902379534     Delta-E=       -0.000000003229 Rises=F Damp=F
 DIIS: error= 5.66D-06 at cycle   3 NSaved=   3.
 NSaved= 3 IEnMin= 3 EnMin= -40.4994902379534     IErMin= 3 ErrMin= 5.66D-06
 ErrMax= 5.66D-06  0.00D+00 EMaxC= 1.00D-01 BMatC= 9.41D-10 BMatP= 3.96D-09
 IDIUse=1 WtCom= 1.00D+00 WtEn= 0.00D+00
 Coeff-Com: -0.348D-01 0.303D+00 0.732D+00
 Coeff:     -0.348D-01 0.303D+00 0.732D+00
 Gap=     0.547 Goal=   None    Shift=    0.000
 RMSDP=2.92D-07 MaxDP=5.67D-06 DE=-3.23D-09 OVMax= 8.04D-06

 Cycle   8  Pass 1  IDiag  1:
 E= -40.4994902388261     Delta-E=       -0.000000000873 Rises=F Damp=F
 DIIS: error= 2.92D-07 at cycle   4 NSaved=   4.
 NSaved= 4 IEnMin= 4 EnMin= -40.4994902388261     IErMin= 4 ErrMin= 2.92D-07
 ErrMax= 2.92D-07  0.00D+00 EMaxC= 1.00D-01 BMatC= 1.55D-12 BMatP= 9.41D-10
 IDIUse=1 WtCom= 1.00D+00 WtEn= 0.00D+00
 Coeff-Com: -0.105D-02-0.197D-01-0.412D-01 0.106D+01
 Coeff:     -0.105D-02-0.197D-01-0.412D-01 0.106D+01
 Gap=     0.547 Goal=   None    Shift=    0.000
 RMSDP=5.54D-08 MaxDP=4.37D-07 DE=-8.73D-10 OVMax= 9.19D-07

 Cycle   9  Pass 1  IDiag  1:
 E= -40.4994902388292     Delta-E=       -0.000000000003 Rises=F Damp=F
 DIIS: error= 7.74D-08 at cycle   5 NSaved=   5.
 NSaved= 5 IEnMin= 5 EnMin= -40.4994902388292     IErMin= 5 ErrMin= 7.74D-08
 ErrMax= 7.74D-08  0.00D+00 EMaxC= 1.00D-01 BMatC= 1.36D-13 BMatP= 1.55D-12
 IDIUse=1 WtCom= 1.00D+00 WtEn= 0.00D+00
 Coeff-Com:  0.116D-02-0.150D-01-0.379D-01 0.192D+00 0.860D+00
 Coeff:      0.116D-02-0.150D-01-0.379D-01 0.192D+00 0.860D+00
 Gap=     0.547 Goal=   None    Shift=    0.000
 RMSDP=9.54D-09 MaxDP=8.02D-08 DE=-3.11D-12 OVMax= 2.11D-07

 SCF Done:  E(RM062X) =  -40.4994902388     A.U. after    9 cycles
            NFock=  9  Conv=0.95D-08     -V/T= 2.0036
 KE= 4.035246184916D+01 PE=-1.206300379278D+02 EE= 2.609967711275D+01
 Leave Link  502 at Thu Feb 16 11:38:52 2023, MaxMem=   262144000 cpu:               3.4 elap:               0.9
 (Enter /binaries/g16/l601.exe)
 Copying SCF densities to generalized density rwf, IOpCl= 0 IROHF=0.

 **********************************************************************

            Population analysis using the SCF Density.

 **********************************************************************

 Orbital symmetries:
       Occupied  (A) (A) (A) (A) (A)
       Virtual   (A) (A) (A) (A) (A) (A) (A) (A) (A) (A) (A) (A)
                 (A) (A) (A) (A) (A) (A) (A) (A) (A) (A) (A) (A)
                 (A) (A) (A) (A) (A) (A) (A) (A) (A) (A) (A) (A)
                 (A) (A) (A) (A) (A) (A) (A) (A) (A) (A) (A) (A)
                 (A) (A)
 The electronic state is 1-A.
 Alpha  occ. eigenvalues --  -10.50684  -0.79197  -0.46017  -0.45960  -0.45854
 Alpha virt. eigenvalues --    0.08816   0.16474   0.16532   0.16556   0.23736
 Alpha virt. eigenvalues --    0.23752   0.23783   0.41774   0.52774   0.52941
 Alpha virt. eigenvalues --    0.53020   0.60201   0.64092   0.64104   0.97222
 Alpha virt. eigenvalues --    0.97227   0.97235   1.51312   1.53527   1.53568
 Alpha virt. eigenvalues --    1.53756   1.59882   1.59883   1.60021   1.97900
 Alpha virt. eigenvalues --    2.03419   2.03474   2.03628   2.27712   2.27801
 Alpha virt. eigenvalues --    2.27824   2.43355   2.43467   2.61469   2.61758
 Alpha virt. eigenvalues --    2.61911   3.01766   3.01780   3.03575   3.38475
 Alpha virt. eigenvalues --    3.38771   3.38949   3.50187   3.50407   3.50412
 Alpha virt. eigenvalues --    4.24897   4.25501   4.25744   4.49637  22.41196
          Condensed to atoms (all electrons):
               1          2          3          4          5
     1  C    4.948321   0.401511   0.401783   0.400897   0.401512
     2  H    0.401511   0.534894  -0.025017  -0.024966  -0.024976
     3  H    0.401783  -0.025017   0.534472  -0.024809  -0.025014
     4  H    0.400897  -0.024966  -0.024809   0.535508  -0.024962
     5  H    0.401512  -0.024976  -0.025014  -0.024962   0.534889
 Mulliken charges:
               1
     1  C   -0.554023
     2  H    0.138553
     3  H    0.138585
     4  H    0.138334
     5  H    0.138551
 Sum of Mulliken charges =   0.00000
 Mulliken charges with hydrogens summed into heavy atoms:
               1
     1  C    0.000000
 Electronic spatial extent (au):  <R**2>=             35.1089
 Charge=              0.0000 electrons
 Dipole moment (field-independent basis, Debye):
    X=             -0.0026    Y=             -0.0000    Z=              0.0000  Tot=              0.0026
 Quadrupole moment (field-independent basis, Debye-Ang):
   XX=             -8.3988   YY=             -8.4005   ZZ=             -8.4002
   XY=             -0.0000   XZ=             -0.0033   YZ=             -0.0001
 Traceless Quadrupole moment (field-independent basis, Debye-Ang):
   XX=              0.0011   YY=             -0.0007   ZZ=             -0.0004
   XY=             -0.0000   XZ=             -0.0033   YZ=             -0.0001
 Octapole moment (field-independent basis, Debye-Ang**2):
  XXX=              0.8056  YYY=              0.0153  ZZZ=              0.5124  XYY=             -0.3846
  XXY=              0.0030  XXZ=              0.0943  XZZ=             -0.4430  YZZ=             -0.0184
  YYZ=             -0.6016  XYZ=              0.0024
 Hexadecapole moment (field-independent basis, Debye-Ang**3):
 XXXX=            -15.6942 YYYY=            -15.8756 ZZZZ=            -15.9277 XXXY=              0.0022
 XXXZ=              0.0416 YYYX=             -0.0120 YYYZ=              0.0011 ZZZX=             -0.3805
 ZZZY=              0.0009 XXYY=             -5.5847 XXZZ=             -5.4992 YYZZ=             -5.2479
 XXYZ=             -0.0024 YYXZ=              0.3225 ZZXY=              0.0097
 N-N= 1.367840872710D+01 E-N=-1.206300384263D+02  KE= 4.035246184916D+01
 No NMR shielding tensors so no spin-rotation constants.
 Leave Link  601 at Thu Feb 16 11:38:52 2023, MaxMem=   262144000 cpu:               0.2 elap:               0.1
 (Enter /binaries/g16/l701.exe)
 ... and contract with generalized density number  0.
 Compute integral first derivatives.
   1 Symmetry operations used in ECPInt.
 ECPInt:  NShTT=     378 NPrTT=    1024 LenC2=     379 LenP2D=     994.
 LDataN:  DoStor=T MaxTD1= 7 Len=  274
 Leave Link  701 at Thu Feb 16 11:38:52 2023, MaxMem=   262144000 cpu:               0.2 elap:               0.1
 (Enter /binaries/g16/l702.exe)
 L702 exits ... SP integral derivatives will be done elsewhere.
 Leave Link  702 at Thu Feb 16 11:38:52 2023, MaxMem=   262144000 cpu:               0.0 elap:               0.0
 (Enter /binaries/g16/l703.exe)
 Integral derivatives from FoFJK, PRISM(SPDF).
 Compute integral first derivatives, UseDBF=F ICtDFT=           0.
 Calling FoFJK, ICntrl=      2127 FMM=F ISym2X=0 I1Cent= 0 IOpClX= 0 NMat=1 NMatS=1 NMatT=0.
 FoFJK:  IHMeth= 1 ICntrl=    2127 DoSepK=F KAlg= 0 I1Cent=           0 FoldK=F
 IRaf=         0 NMat=       1 IRICut=       1 DoRegI=T DoRafI=F ISym2E= 0 IDoP0=0 IntGTp=1.
 FoFCou: FMM=F IPFlag=           0 FMFlag=      100000 FMFlg1=         800
         NFxFlg=           0 DoJE=F BraDBF=F KetDBF=F FulRan=T
         wScrn=  0.000000 ICntrl=      2127 IOpCl=  0 I1Cent=           0 NGrid=           0
         NMat0=    1 NMatS0=      1 NMatT0=    0 NMatD0=    1 NMtDS0=    0 NMtDT0=    0
 Symmetry not used in FoFCou.
 Leave Link  703 at Thu Feb 16 11:38:53 2023, MaxMem=   262144000 cpu:               1.3 elap:               0.3
 (Enter /binaries/g16/l716.exe)
 Dipole        =-1.03562266D-03-1.27386120D-05 1.50521074D-05
 ***** Axes restored to original set *****
 -------------------------------------------------------------------
 Center     Atomic                   Forces (Hartrees/Bohr)
 Number     Number              X              Y              Z
 -------------------------------------------------------------------
      1        6           0.000500803    0.000686884   -0.004317691
      2        1           0.004208582   -0.011928976    0.000017774
      3        1           0.004854965    0.006876471    0.011620607
      4        1           0.003087585    0.004371016   -0.007337894
      5        1          -0.012651935   -0.000005396    0.000017203
 -------------------------------------------------------------------
 Cartesian Forces:  Max     0.012651935 RMS     0.006469562
 Leave Link  716 at Thu Feb 16 11:38:53 2023, MaxMem=   262144000 cpu:               0.0 elap:               0.0
 (Enter /binaries/g16/l103.exe)

 GradGradGradGradGradGradGradGradGradGradGradGradGradGradGradGradGradGrad
 Berny optimization.
 FormGI is forming the generalized inverse of G from B-inverse, IUseBI=4.
 Internal  Forces:  Max     0.014348353 RMS     0.006592520
 Search for a local minimum.
 Step number   1 out of a maximum of   24
 All quantities printed in internal units (Hartrees-Bohrs-Radians)
 RMS Force = .65925D-02 SwitMx=.10000D-02 MixMth= 1
 Mixed Optimization -- RFO/linear search
 Second derivative matrix not updated -- first step.
 The second derivative matrix:
                          R1        R2        R3        R4        A1
           R1           0.37229
           R2           0.00000   0.37535
           R3           0.00000   0.00000   0.36611
           R4           0.00000   0.00000   0.00000   0.37230
           A1           0.00000   0.00000   0.00000   0.00000   0.16000
           A2           0.00000   0.00000   0.00000   0.00000   0.00000
           A3           0.00000   0.00000   0.00000   0.00000   0.00000
           A4           0.00000   0.00000   0.00000   0.00000   0.00000
           A5           0.00000   0.00000   0.00000   0.00000   0.00000
           A6           0.00000   0.00000   0.00000   0.00000   0.00000
           D1           0.00000   0.00000   0.00000   0.00000   0.00000
           D2           0.00000   0.00000   0.00000   0.00000   0.00000
           D3           0.00000   0.00000   0.00000   0.00000   0.00000
           D4           0.00000   0.00000   0.00000   0.00000   0.00000
                          A2        A3        A4        A5        A6
           A2           0.16000
           A3           0.00000   0.16000
           A4           0.00000   0.00000   0.16000
           A5           0.00000   0.00000   0.00000   0.16000
           A6           0.00000   0.00000   0.00000   0.00000   0.16000
           D1           0.00000   0.00000   0.00000   0.00000   0.00000
           D2           0.00000   0.00000   0.00000   0.00000   0.00000
           D3           0.00000   0.00000   0.00000   0.00000   0.00000
           D4           0.00000   0.00000   0.00000   0.00000   0.00000
                          D1        D2        D3        D4
           D1           0.00434
           D2           0.00000   0.00499
           D3           0.00000   0.00000   0.00499
           D4           0.00000   0.00000   0.00000   0.00499
 ITU=  0
     Eigenvalues ---    0.05257   0.05901   0.08731   0.16000   0.16000
     Eigenvalues ---    0.36611   0.37229   0.37230   0.37535
 RFO step:  Lambda=-1.62683066D-03 EMin= 5.25714373D-02
 Linear search not attempted -- first point.
 Iteration  1 RMS(Cart)=  0.01757948 RMS(Int)=  0.00000976
 Iteration  2 RMS(Cart)=  0.00000719 RMS(Int)=  0.00000010
 Iteration  3 RMS(Cart)=  0.00000000 RMS(Int)=  0.00000010
 ITry= 1 IFail=0 DXMaxC= 3.38D-02 DCOld= 1.00D+10 DXMaxT= 3.00D-01 DXLimC= 3.00D+00 Rises=F
 Variable       Old X    -DE/DX   Delta X   Delta X   Delta X     New X
                                 (Linear)    (Quad)   (Total)
    R1        2.02202   0.01265   0.00000   0.03383   0.03383   2.05585
    R2        2.01747   0.01435   0.00000   0.03806   0.03806   2.05554
    R3        2.03137   0.00908   0.00000   0.02469   0.02469   2.05606
    R4        2.02201   0.01265   0.00000   0.03384   0.03384   2.05584
    A1        1.91140   0.00002   0.00000   0.00022   0.00022   1.91162
    A2        1.90898   0.00002   0.00000   0.00044   0.00044   1.90942
    A3        1.91066  -0.00003   0.00000   0.00020   0.00020   1.91086
    A4        1.91226  -0.00013   0.00000  -0.00149  -0.00149   1.91077
    A5        1.91146   0.00004   0.00000   0.00018   0.00018   1.91164
    A6        1.90904   0.00008   0.00000   0.00044   0.00044   1.90948
    D1       -2.09531   0.00004   0.00000   0.00037   0.00037  -2.09494
    D2        2.09586   0.00004   0.00000   0.00051   0.00051   2.09637
    D3       -2.09141  -0.00005   0.00000  -0.00093  -0.00093  -2.09234
    D4        2.09592  -0.00009   0.00000  -0.00144  -0.00144   2.09447
         Item               Value     Threshold  Converged?
 Maximum Force            0.014348     0.000450     NO 
 RMS     Force            0.006593     0.000300     NO 
 Maximum Displacement     0.033826     0.001800     NO 
 RMS     Displacement     0.017580     0.001200     NO 
 Predicted change in Energy=-8.169568D-04
 Lowest energy point so far.  Saving SCF results.
 GradGradGradGradGradGradGradGradGradGradGradGradGradGradGradGradGradGrad

 Leave Link  103 at Thu Feb 16 11:38:53 2023, MaxMem=   262144000 cpu:               0.0 elap:               0.0
 (Enter /binaries/g16/l202.exe)
                          Input orientation:                          
 ---------------------------------------------------------------------
 Center     Atomic      Atomic             Coordinates (Angstroms)
 Number     Number       Type             X           Y           Z
 ---------------------------------------------------------------------
      1          6           0        4.291805    3.658798   -0.001206
      2          1           0        4.654570    2.633154   -0.001099
      3          1           0        4.655574    4.173221    0.885487
      4          1           0        4.653251    4.169915   -0.891097
      5          1           0        3.203900    3.658912   -0.001086
 ---------------------------------------------------------------------
                    Distance matrix (angstroms):
                    1          2          3          4          5
     1  C    0.000000
     2  H    1.087908   0.000000
     3  H    1.087743   1.777032   0.000000
     4  H    1.088021   1.775875   1.776589   0.000000
     5  H    1.087905   1.776689   1.777044   1.775912   0.000000
 Stoichiometry    CH4
 Framework group  C1[X(CH4)]
 Deg. of freedom     9
 Full point group                 C1      NOp   1
 RotChk:  IX=0 Diff= 1.66D+00
 Largest Abelian subgroup         C1      NOp   1
 Largest concise Abelian subgroup C1      NOp   1
                         Standard orientation:                         
 ---------------------------------------------------------------------
 Center     Atomic      Atomic             Coordinates (Angstroms)
 Number     Number       Type             X           Y           Z
 ---------------------------------------------------------------------
      1          6           0       -0.000225    0.000010   -0.000194
      2          1           0        0.400477   -0.879415   -0.499788
      3          1           0       -1.084603    0.004215   -0.085570
      4          1           0        0.280894   -0.021772    1.050657
      5          1           0        0.404580    0.896911   -0.464132
 ---------------------------------------------------------------------
 Rotational constants (GHZ):         158.9538770         158.9024320         158.8066784
 Leave Link  202 at Thu Feb 16 11:38:53 2023, MaxMem=   262144000 cpu:               0.0 elap:               0.0
 (Enter /binaries/g16/l301.exe)
 Standard basis: def2TZVP (5D, 7F)
 Ernie: Thresh=  0.10000D-02 Tol=  0.10000D-05 Strict=F.
 There are    60 symmetry adapted cartesian basis functions of A   symmetry.
 There are    55 symmetry adapted basis functions of A   symmetry.
    55 basis functions,    83 primitive gaussians,    60 cartesian basis functions
     5 alpha electrons        5 beta electrons
       nuclear repulsion energy        13.4613973576 Hartrees.
 IExCor= 4336 DFT=T Ex+Corr=M062X ExCW=0 ScaHFX=  0.540000
 ScaDFX=  1.000000  1.000000  1.000000  1.000000 ScalE2=  1.000000  1.000000
 IRadAn=      5 IRanWt=     -1 IRanGd=            0 ICorTp=0 IEmpDi=  4
 NAtoms=    5 NActive=    5 NUniq=    5 SFac= 1.00D+00 NAtFMM=   60 NAOKFM=F Big=F
 Integral buffers will be    131072 words long.
 Raffenetti 2 integral format.
 Two-electron integral symmetry is turned on.
 Leave Link  301 at Thu Feb 16 11:38:53 2023, MaxMem=   262144000 cpu:               0.1 elap:               0.0
 (Enter /binaries/g16/l302.exe)
 NPDir=0 NMtPBC=     1 NCelOv=     1 NCel=       1 NClECP=     1 NCelD=      1
         NCelK=      1 NCelE2=     1 NClLst=     1 CellRange=     0.0.
 One-electron integrals computed using PRISM.
 One-electron integral symmetry used in STVInt
   1 Symmetry operations used in ECPInt.
 ECPInt:  NShTT=     378 NPrTT=    1024 LenC2=     379 LenP2D=     994.
 LDataN:  DoStor=T MaxTD1= 6 Len=  172
 NBasis=    55 RedAO= T EigKep=  1.44D-03  NBF=    55
 NBsUse=    55 1.00D-06 EigRej= -1.00D+00 NBFU=    55
 Precomputing XC quadrature grid using
 IXCGrd= 4 IRadAn=           5 IRanWt=          -1 IRanGd=           0 AccXCQ= 0.00D+00.
 Generated NRdTot=       0 NPtTot=           0 NUsed=           0 NTot=          32
 NSgBfM=    60    60    60    60    60 MxSgAt=     5 MxSgA2=     5.
 Leave Link  302 at Thu Feb 16 11:38:53 2023, MaxMem=   262144000 cpu:               0.2 elap:               0.1
 (Enter /binaries/g16/l303.exe)
 DipDrv:  MaxL=1.
 Leave Link  303 at Thu Feb 16 11:38:53 2023, MaxMem=   262144000 cpu:               0.0 elap:               0.0
 (Enter /binaries/g16/l401.exe)
 Initial guess from the checkpoint file:  "in.chk"
 B after Tr=    -0.000000   -0.000000    0.000000
         Rot=    0.809650   -0.004106    0.586800    0.010801 Ang= -71.88 deg.
 Guess basis will be translated and rotated to current coordinates.
 JPrj=2 DoOrth=T DoCkMO=T.
 Generating alternative initial guess.
 ExpMin= 9.52D-02 ExpMax= 1.36D+04 ExpMxC= 4.63D+02 IAcc=3 IRadAn=         5 AccDes= 0.00D+00
 Harris functional with IExCor= 1009 and IRadAn=       5 diagonalized for initial guess.
 HarFok:  IExCor= 1009 AccDes= 0.00D+00 IRadAn=         5 IDoV= 1 UseB2=F ITyADJ=14
 ICtDFT=  3500011 ScaDFX=  1.000000  1.000000  1.000000  1.000000
 FoFCou: FMM=F IPFlag=           0 FMFlag=      100000 FMFlg1=           0
         NFxFlg=           0 DoJE=T BraDBF=F KetDBF=T FulRan=T
         wScrn=  0.000000 ICntrl=       500 IOpCl=  0 I1Cent=   200000004 NGrid=           0
         NMat0=    1 NMatS0=      1 NMatT0=    0 NMatD0=    1 NMtDS0=    0 NMtDT0=    0
 Petite list used in FoFCou.
 Harris En= -40.5390073136691    
 Leave Link  401 at Thu Feb 16 11:38:53 2023, MaxMem=   262144000 cpu:               0.6 elap:               0.2
 (Enter /binaries/g16/l502.exe)
 Keep R1 ints in memory in canonical form, NReq=4730578.
 FoFCou: FMM=F IPFlag=           0 FMFlag=           0 FMFlg1=           0
         NFxFlg=           0 DoJE=F BraDBF=F KetDBF=F FulRan=T
         wScrn=  0.000000 ICntrl=       600 IOpCl=  0 I1Cent=           0 NGrid=           0
         NMat0=    1 NMatS0=   1540 NMatT0=    0 NMatD0=    1 NMtDS0=    0 NMtDT0=    0
 Symmetry not used in FoFCou.
 Two-electron integral symmetry not used.
 Closed shell SCF:
 Using DIIS extrapolation, IDIIS=  1040.
 NGot=   262144000 LenX=   260948992 LenY=   260944951
 Requested convergence on RMS density matrix=1.00D-08 within 128 cycles.
 Requested convergence on MAX density matrix=1.00D-06.
 Requested convergence on             energy=1.00D-06.
 No special actions if energy rises.
 Integral accuracy reduced to 1.0D-05 until final iterations.

 Cycle   1  Pass 0  IDiag  1:
 E= -40.5001009693141    
 DIIS: error= 2.36D-03 at cycle   1 NSaved=   1.
 NSaved= 1 IEnMin= 1 EnMin= -40.5001009693141     IErMin= 1 ErrMin= 2.36D-03
 ErrMax= 2.36D-03  0.00D+00 EMaxC= 1.00D-01 BMatC= 1.96D-04 BMatP= 1.96D-04
 IDIUse=3 WtCom= 9.76D-01 WtEn= 2.36D-02
 Coeff-Com:  0.100D+01
 Coeff-En:   0.100D+01
 Coeff:      0.100D+01
 Gap=     0.849 Goal=   None    Shift=    0.000
 GapD=    0.849 DampG=2.000 DampE=1.000 DampFc=2.0000 IDamp=-1.
 RMSDP=2.05D-04 MaxDP=3.32D-03              OVMax= 5.89D-03

 Cycle   2  Pass 0  IDiag  1:
 E= -40.5002218160169     Delta-E=       -0.000120846703 Rises=F Damp=F
 DIIS: error= 1.42D-03 at cycle   2 NSaved=   2.
 NSaved= 2 IEnMin= 2 EnMin= -40.5002218160169     IErMin= 2 ErrMin= 1.42D-03
 ErrMax= 1.42D-03  0.00D+00 EMaxC= 1.00D-01 BMatC= 5.31D-05 BMatP= 1.96D-04
 IDIUse=3 WtCom= 9.86D-01 WtEn= 1.42D-02
 Coeff-Com:  0.293D+00 0.707D+00
 Coeff-En:   0.000D+00 0.100D+01
 Coeff:      0.289D+00 0.711D+00
 Gap=     0.543 Goal=   None    Shift=    0.000
 RMSDP=9.06D-05 MaxDP=1.46D-03 DE=-1.21D-04 OVMax= 2.80D-03

 Cycle   3  Pass 0  IDiag  1:
 E= -40.5002666785753     Delta-E=       -0.000044862558 Rises=F Damp=F
 DIIS: error= 4.74D-04 at cycle   3 NSaved=   3.
 NSaved= 3 IEnMin= 3 EnMin= -40.5002666785753     IErMin= 3 ErrMin= 4.74D-04
 ErrMax= 4.74D-04  0.00D+00 EMaxC= 1.00D-01 BMatC= 5.85D-06 BMatP= 5.31D-05
 IDIUse=3 WtCom= 9.95D-01 WtEn= 4.74D-03
 Coeff-Com: -0.792D-02 0.244D+00 0.764D+00
 Coeff-En:   0.000D+00 0.000D+00 0.100D+01
 Coeff:     -0.788D-02 0.242D+00 0.765D+00
 Gap=     0.542 Goal=   None    Shift=    0.000
 RMSDP=2.16D-05 MaxDP=3.55D-04 DE=-4.49D-05 OVMax= 7.49D-04

 Cycle   4  Pass 0  IDiag  1:
 E= -40.5002722843805     Delta-E=       -0.000005605805 Rises=F Damp=F
 DIIS: error= 1.12D-05 at cycle   4 NSaved=   4.
 NSaved= 4 IEnMin= 4 EnMin= -40.5002722843805     IErMin= 4 ErrMin= 1.12D-05
 ErrMax= 1.12D-05  0.00D+00 EMaxC= 1.00D-01 BMatC= 2.89D-09 BMatP= 5.85D-06
 IDIUse=1 WtCom= 1.00D+00 WtEn= 0.00D+00
 Coeff-Com: -0.103D-02-0.158D-01-0.328D-01 0.105D+01
 Coeff:     -0.103D-02-0.158D-01-0.328D-01 0.105D+01
 Gap=     0.542 Goal=   None    Shift=    0.000
 RMSDP=1.37D-06 MaxDP=1.56D-05 DE=-5.61D-06 OVMax= 2.85D-05

 Initial convergence to 1.0D-05 achieved.  Increase integral accuracy.
 Cycle   5  Pass 1  IDiag  1:
 E= -40.5002840273368     Delta-E=       -0.000011742956 Rises=F Damp=F
 DIIS: error= 1.28D-05 at cycle   1 NSaved=   1.
 NSaved= 1 IEnMin= 1 EnMin= -40.5002840273368     IErMin= 1 ErrMin= 1.28D-05
 ErrMax= 1.28D-05  0.00D+00 EMaxC= 1.00D-01 BMatC= 1.11D-08 BMatP= 1.11D-08
 IDIUse=1 WtCom= 1.00D+00 WtEn= 0.00D+00
 Coeff-Com:  0.100D+01
 Coeff:      0.100D+01
 Gap=     0.542 Goal=   None    Shift=    0.000
 RMSDP=1.37D-06 MaxDP=1.56D-05 DE=-1.17D-05 OVMax= 2.52D-05

 Cycle   6  Pass 1  IDiag  1:
 E= -40.5002840351515     Delta-E=       -0.000000007815 Rises=F Damp=F
 DIIS: error= 2.34D-06 at cycle   2 NSaved=   2.
 NSaved= 2 IEnMin= 2 EnMin= -40.5002840351515     IErMin= 2 ErrMin= 2.34D-06
 ErrMax= 2.34D-06  0.00D+00 EMaxC= 1.00D-01 BMatC= 1.86D-10 BMatP= 1.11D-08
 IDIUse=1 WtCom= 1.00D+00 WtEn= 0.00D+00
 Coeff-Com: -0.132D-01 0.101D+01
 Coeff:     -0.132D-01 0.101D+01
 Gap=     0.542 Goal=   None    Shift=    0.000
 RMSDP=2.09D-07 MaxDP=2.38D-06 DE=-7.81D-09 OVMax= 6.85D-06

 Cycle   7  Pass 1  IDiag  1:
 E= -40.5002840352838     Delta-E=       -0.000000000132 Rises=F Damp=F
 DIIS: error= 1.31D-06 at cycle   3 NSaved=   3.
 NSaved= 3 IEnMin= 3 EnMin= -40.5002840352838     IErMin= 3 ErrMin= 1.31D-06
 ErrMax= 1.31D-06  0.00D+00 EMaxC= 1.00D-01 BMatC= 4.71D-11 BMatP= 1.86D-10
 IDIUse=1 WtCom= 1.00D+00 WtEn= 0.00D+00
 Coeff-Com: -0.187D-01 0.314D+00 0.705D+00
 Coeff:     -0.187D-01 0.314D+00 0.705D+00
 Gap=     0.542 Goal=   None    Shift=    0.000
 RMSDP=8.23D-08 MaxDP=1.21D-06 DE=-1.32D-10 OVMax= 2.70D-06

 Cycle   8  Pass 1  IDiag  1:
 E= -40.5002840353278     Delta-E=       -0.000000000044 Rises=F Damp=F
 DIIS: error= 3.76D-07 at cycle   4 NSaved=   4.
 NSaved= 4 IEnMin= 4 EnMin= -40.5002840353278     IErMin= 4 ErrMin= 3.76D-07
 ErrMax= 3.76D-07  0.00D+00 EMaxC= 1.00D-01 BMatC= 3.81D-12 BMatP= 4.71D-11
 IDIUse=1 WtCom= 1.00D+00 WtEn= 0.00D+00
 Coeff-Com: -0.369D-02 0.149D-01 0.227D+00 0.762D+00
 Coeff:     -0.369D-02 0.149D-01 0.227D+00 0.762D+00
 Gap=     0.542 Goal=   None    Shift=    0.000
 RMSDP=2.19D-08 MaxDP=3.28D-07 DE=-4.41D-11 OVMax= 7.02D-07

 Cycle   9  Pass 1  IDiag  1:
 E= -40.5002840353317     Delta-E=       -0.000000000004 Rises=F Damp=F
 DIIS: error= 5.01D-08 at cycle   5 NSaved=   5.
 NSaved= 5 IEnMin= 5 EnMin= -40.5002840353317     IErMin= 5 ErrMin= 5.01D-08
 ErrMax= 5.01D-08  0.00D+00 EMaxC= 1.00D-01 BMatC= 6.10D-14 BMatP= 3.81D-12
 IDIUse=1 WtCom= 1.00D+00 WtEn= 0.00D+00
 Coeff-Com:  0.637D-03-0.184D-01-0.741D-02 0.931D-01 0.932D+00
 Coeff:      0.637D-03-0.184D-01-0.741D-02 0.931D-01 0.932D+00
 Gap=     0.542 Goal=   None    Shift=    0.000
 RMSDP=5.14D-09 MaxDP=4.55D-08 DE=-3.82D-12 OVMax= 1.57D-07

 SCF Done:  E(RM062X) =  -40.5002840353     A.U. after    9 cycles
            NFock=  9  Conv=0.51D-08     -V/T= 2.0060
 KE= 4.025694778222D+01 PE=-1.201302030342D+02 EE= 2.591157385911D+01
 Leave Link  502 at Thu Feb 16 11:38:54 2023, MaxMem=   262144000 cpu:               3.5 elap:               0.9
 (Enter /binaries/g16/l701.exe)
 ... and contract with generalized density number  0.
 Compute integral first derivatives.
   1 Symmetry operations used in ECPInt.
 ECPInt:  NShTT=     378 NPrTT=    1024 LenC2=     379 LenP2D=     994.
 LDataN:  DoStor=T MaxTD1= 7 Len=  274
 Leave Link  701 at Thu Feb 16 11:38:54 2023, MaxMem=   262144000 cpu:               0.2 elap:               0.1
 (Enter /binaries/g16/l702.exe)
 L702 exits ... SP integral derivatives will be done elsewhere.
 Leave Link  702 at Thu Feb 16 11:38:54 2023, MaxMem=   262144000 cpu:               0.1 elap:               0.0
 (Enter /binaries/g16/l703.exe)
 Integral derivatives from FoFJK, PRISM(SPDF).
 Compute integral first derivatives, UseDBF=F ICtDFT=           0.
 Calling FoFJK, ICntrl=      2127 FMM=F ISym2X=0 I1Cent= 0 IOpClX= 0 NMat=1 NMatS=1 NMatT=0.
 FoFJK:  IHMeth= 1 ICntrl=    2127 DoSepK=F KAlg= 0 I1Cent=           0 FoldK=F
 IRaf=         0 NMat=       1 IRICut=       1 DoRegI=T DoRafI=F ISym2E= 0 IDoP0=0 IntGTp=1.
 FoFCou: FMM=F IPFlag=           0 FMFlag=      100000 FMFlg1=         800
         NFxFlg=           0 DoJE=F BraDBF=F KetDBF=F FulRan=T
         wScrn=  0.000000 ICntrl=      2127 IOpCl=  0 I1Cent=           0 NGrid=           0
         NMat0=    1 NMatS0=      1 NMatT0=    0 NMatD0=    1 NMtDS0=    0 NMtDT0=    0
 Symmetry not used in FoFCou.
 Leave Link  703 at Thu Feb 16 11:38:54 2023, MaxMem=   262144000 cpu:               1.3 elap:               0.3
 (Enter /binaries/g16/l716.exe)
 Dipole        = 2.35606696D-04-1.04186003D-05 2.21441191D-04
 ***** Axes restored to original set *****
 -------------------------------------------------------------------
 Center     Atomic                   Forces (Hartrees/Bohr)
 Number     Number              X              Y              Z
 -------------------------------------------------------------------
      1        6          -0.000000572   -0.000009502   -0.000372719
      2        1          -0.000056369    0.000089453    0.000104826
      3        1          -0.000033691   -0.000046495    0.000005749
      4        1          -0.000010006   -0.000010755    0.000157676
      5        1           0.000100637   -0.000022700    0.000104467
 -------------------------------------------------------------------
 Cartesian Forces:  Max     0.000372719 RMS     0.000118643
 Leave Link  716 at Thu Feb 16 11:38:54 2023, MaxMem=   262144000 cpu:               0.0 elap:               0.0
 (Enter /binaries/g16/l103.exe)

 GradGradGradGradGradGradGradGradGradGradGradGradGradGradGradGradGradGrad
 Berny optimization.
 Using GEDIIS/GDIIS optimizer.
 FormGI is forming the generalized inverse of G from B-inverse, IUseBI=4.
 Internal  Forces:  Max     0.000137338 RMS     0.000070105
 Search for a local minimum.
 Step number   2 out of a maximum of   24
 All quantities printed in internal units (Hartrees-Bohrs-Radians)
 RMS Force = .70105D-04 SwitMx=.10000D-02 MixMth= 2
 Mixed Optimization -- En-DIIS/RFO-DIIS
 Update second derivatives using D2CorX and points    1    2
 DE= -7.94D-04 DEPred=-8.17D-04 R= 9.72D-01
 TightC=F SS=  1.41D+00  RLast= 6.60D-02 DXNew= 5.0454D-01 1.9795D-01
 Trust test= 9.72D-01 RLast= 6.60D-02 DXMaxT set to 3.00D-01
 The second derivative matrix:
                          R1        R2        R3        R4        A1
           R1           0.37364
           R2           0.00084   0.37552
           R3           0.00147   0.00116   0.36752
           R4           0.00133   0.00082   0.00145   0.37361
           A1           0.00003   0.00003   0.00002   0.00003   0.16000
           A2          -0.00070  -0.00080  -0.00051  -0.00070  -0.00000
           A3          -0.00022  -0.00025  -0.00016  -0.00022  -0.00000
           A4           0.00092   0.00105   0.00065   0.00092   0.00000
           A5           0.00061   0.00069   0.00044   0.00061   0.00000
           A6          -0.00064  -0.00072  -0.00046  -0.00064  -0.00000
           D1           0.00028   0.00032   0.00021   0.00028   0.00000
           D2           0.00089   0.00100   0.00064   0.00089   0.00000
           D3           0.00026   0.00029   0.00019   0.00026   0.00000
           D4          -0.00063  -0.00071  -0.00046  -0.00063  -0.00000
                          A2        A3        A4        A5        A6
           A2           0.16000
           A3          -0.00000   0.16000
           A4           0.00001   0.00000   0.15997
           A5          -0.00000  -0.00000  -0.00000   0.16001
           A6          -0.00000  -0.00000   0.00001  -0.00000   0.16000
           D1          -0.00000   0.00000  -0.00000   0.00000  -0.00000
           D2          -0.00000   0.00000  -0.00001   0.00001  -0.00000
           D3          -0.00000   0.00000  -0.00000   0.00000   0.00000
           D4           0.00000  -0.00000   0.00001  -0.00001   0.00000
                          D1        D2        D3        D4
           D1           0.00434
           D2           0.00000   0.00500
           D3           0.00000   0.00000   0.00499
           D4          -0.00000  -0.00001  -0.00000   0.00500
 ITU=  1  0
 Use linear search instead of GDIIS.
     Eigenvalues ---    0.05256   0.05897   0.08737   0.15999   0.16000
     Eigenvalues ---    0.36691   0.37230   0.37413   0.37699
 RFO step:  Lambda=-4.16370976D-07 EMin= 5.25589779D-02
 Quartic linear search produced a step of -0.00725.
 Iteration  1 RMS(Cart)=  0.00040020 RMS(Int)=  0.00000034
 Iteration  2 RMS(Cart)=  0.00000022 RMS(Int)=  0.00000025
 ITry= 1 IFail=0 DXMaxC= 7.54D-04 DCOld= 1.00D+10 DXMaxT= 3.00D-01 DXLimC= 3.00D+00 Rises=F
 Variable       Old X    -DE/DX   Delta X   Delta X   Delta X     New X
                                 (Linear)    (Quad)   (Total)
    R1        2.05585  -0.00010  -0.00025  -0.00003  -0.00028   2.05557
    R2        2.05554  -0.00003  -0.00028   0.00020  -0.00008   2.05546
    R3        2.05606  -0.00014  -0.00018  -0.00020  -0.00037   2.05569
    R4        2.05584  -0.00010  -0.00025  -0.00003  -0.00027   2.05557
    A1        1.91162  -0.00001  -0.00000  -0.00064  -0.00064   1.91098
    A2        1.90942   0.00004  -0.00000   0.00083   0.00082   1.91024
    A3        1.91086  -0.00004  -0.00000  -0.00022  -0.00022   1.91064
    A4        1.91077  -0.00001   0.00001  -0.00011  -0.00010   1.91067
    A5        1.91164  -0.00006  -0.00000  -0.00068  -0.00069   1.91096
    A6        1.90948   0.00009  -0.00000   0.00083   0.00082   1.91030
    D1       -2.09494   0.00000  -0.00000   0.00034   0.00034  -2.09461
    D2        2.09637  -0.00008  -0.00000  -0.00134  -0.00134   2.09503
    D3       -2.09234  -0.00008   0.00001  -0.00138  -0.00138  -2.09372
    D4        2.09447  -0.00000   0.00001  -0.00004  -0.00003   2.09444
         Item               Value     Threshold  Converged?
 Maximum Force            0.000137     0.000450     YES
 RMS     Force            0.000070     0.000300     YES
 Maximum Displacement     0.000754     0.001800     YES
 RMS     Displacement     0.000400     0.001200     YES
 Predicted change in Energy=-2.471475D-07
 Optimization completed.
    -- Stationary point found.
                           ----------------------------
                           !   Optimized Parameters   !
                           ! (Angstroms and Degrees)  !
 --------------------------                            --------------------------
 ! Name  Definition              Value          Derivative Info.                !
 --------------------------------------------------------------------------------
 ! R1    R(1,2)                  1.0879         -DE/DX =   -0.0001              !
 ! R2    R(1,3)                  1.0877         -DE/DX =    0.0                 !
 ! R3    R(1,4)                  1.088          -DE/DX =   -0.0001              !
 ! R4    R(1,5)                  1.0879         -DE/DX =   -0.0001              !
 ! A1    A(2,1,3)              109.5279         -DE/DX =    0.0                 !
 ! A2    A(2,1,4)              109.4016         -DE/DX =    0.0                 !
 ! A3    A(2,1,5)              109.4845         -DE/DX =    0.0                 !
 ! A4    A(3,1,4)              109.479          -DE/DX =    0.0                 !
 ! A5    A(3,1,5)              109.5291         -DE/DX =   -0.0001              !
 ! A6    A(4,1,5)              109.4052         -DE/DX =    0.0001              !
 ! D1    D(2,1,4,3)           -120.0314         -DE/DX =    0.0                 !
 ! D2    D(2,1,5,3)            120.1131         -DE/DX =   -0.0001              !
 ! D3    D(2,1,5,4)           -119.8824         -DE/DX =   -0.0001              !
 ! D4    D(3,1,5,4)            120.0045         -DE/DX =    0.0                 !
 --------------------------------------------------------------------------------
 Lowest energy point so far.  Saving SCF results.
 Largest change from initial coordinates is atom    4       0.737 Angstoms.
 GradGradGradGradGradGradGradGradGradGradGradGradGradGradGradGradGradGrad

 Leave Link  103 at Thu Feb 16 11:38:54 2023, MaxMem=   262144000 cpu:               0.0 elap:               0.0
 (Enter /binaries/g16/l202.exe)
                          Input orientation:                          
 ---------------------------------------------------------------------
 Center     Atomic      Atomic             Coordinates (Angstroms)
 Number     Number       Type             X           Y           Z
 ---------------------------------------------------------------------
      1          6           0        4.291805    3.658798   -0.001206
      2          1           0        4.654570    2.633154   -0.001099
      3          1           0        4.655574    4.173221    0.885487
      4          1           0        4.653251    4.169915   -0.891097
      5          1           0        3.203900    3.658912   -0.001086
 ---------------------------------------------------------------------
                    Distance matrix (angstroms):
                    1          2          3          4          5
     1  C    0.000000
     2  H    1.087908   0.000000
     3  H    1.087743   1.777032   0.000000
     4  H    1.088021   1.775875   1.776589   0.000000
     5  H    1.087905   1.776689   1.777044   1.775912   0.000000
 Stoichiometry    CH4
 Framework group  C1[X(CH4)]
 Deg. of freedom     9
 Full point group                 C1      NOp   1
 RotChk:  IX=0 Diff= 7.07D-13
 Largest Abelian subgroup         C1      NOp   1
 Largest concise Abelian subgroup C1      NOp   1
                         Standard orientation:                         
 ---------------------------------------------------------------------
 Center     Atomic      Atomic             Coordinates (Angstroms)
 Number     Number       Type             X           Y           Z
 ---------------------------------------------------------------------
      1          6           0       -0.000225    0.000010   -0.000194
      2          1           0        0.400477   -0.879415   -0.499788
      3          1           0       -1.084603    0.004215   -0.085570
      4          1           0        0.280894   -0.021772    1.050657
      5          1           0        0.404580    0.896911   -0.464132
 ---------------------------------------------------------------------
 Rotational constants (GHZ):         158.9538770         158.9024320         158.8066784
 Leave Link  202 at Thu Feb 16 11:38:54 2023, MaxMem=   262144000 cpu:               0.0 elap:               0.0
 (Enter /binaries/g16/l601.exe)
 Copying SCF densities to generalized density rwf, IOpCl= 0 IROHF=0.

 **********************************************************************

            Population analysis using the SCF Density.

 **********************************************************************

 Orbital symmetries:
       Occupied  (A) (A) (A) (A) (A)
       Virtual   (A) (A) (A) (A) (A) (A) (A) (A) (A) (A) (A) (A)
                 (A) (A) (A) (A) (A) (A) (A) (A) (A) (A) (A) (A)
                 (A) (A) (A) (A) (A) (A) (A) (A) (A) (A) (A) (A)
                 (A) (A) (A) (A) (A) (A) (A) (A) (A) (A) (A) (A)
                 (A) (A)
 The electronic state is 1-A.
 Alpha  occ. eigenvalues --  -10.51438  -0.78589  -0.45609  -0.45594  -0.45574
 Alpha virt. eigenvalues --    0.08661   0.16226   0.16228   0.16229   0.23821
 Alpha virt. eigenvalues --    0.23823   0.23823   0.41702   0.52184   0.52201
 Alpha virt. eigenvalues --    0.52214   0.58708   0.64111   0.64114   0.97230
 Alpha virt. eigenvalues --    0.97238   0.97247   1.51833   1.53716   1.53739
 Alpha virt. eigenvalues --    1.53757   1.58524   1.58548   1.58572   1.98316
 Alpha virt. eigenvalues --    2.02729   2.02782   2.02842   2.26473   2.26498
 Alpha virt. eigenvalues --    2.26510   2.42534   2.42561   2.59427   2.59472
 Alpha virt. eigenvalues --    2.59503   3.00235   3.00238   3.00341   3.36791
 Alpha virt. eigenvalues --    3.36889   3.36976   3.49098   3.49155   3.49223
 Alpha virt. eigenvalues --    4.20849   4.20892   4.20979   4.46169  22.31525
          Condensed to atoms (all electrons):
               1          2          3          4          5
     1  C    4.963049   0.398763   0.398768   0.398764   0.398762
     2  H    0.398763   0.535259  -0.024462  -0.024587  -0.024499
     3  H    0.398768  -0.024462   0.535157  -0.024505  -0.024461
     4  H    0.398764  -0.024587  -0.024505   0.535357  -0.024582
     5  H    0.398762  -0.024499  -0.024461  -0.024582   0.535255
 Mulliken charges:
               1
     1  C   -0.558106
     2  H    0.139525
     3  H    0.139503
     4  H    0.139552
     5  H    0.139525
 Sum of Mulliken charges =  -0.00000
 Mulliken charges with hydrogens summed into heavy atoms:
               1
     1  C   -0.000000
 Electronic spatial extent (au):  <R**2>=             35.7549
 Charge=             -0.0000 electrons
 Dipole moment (field-independent basis, Debye):
    X=              0.0006    Y=             -0.0000    Z=              0.0006  Tot=              0.0008
 Quadrupole moment (field-independent basis, Debye-Ang):
   XX=             -8.4482   YY=             -8.4506   ZZ=             -8.4542
   XY=              0.0000   XZ=             -0.0001   YZ=              0.0000
 Traceless Quadrupole moment (field-independent basis, Debye-Ang):
   XX=              0.0028   YY=              0.0004   ZZ=             -0.0032
   XY=              0.0000   XZ=             -0.0001   YZ=              0.0000
 Octapole moment (field-independent basis, Debye-Ang**2):
  XXX=             -0.8652  YYY=              0.0318  ZZZ=              0.7186  XYY=              0.4896
  XXY=              0.0069  XXZ=             -0.1336  XZZ=              0.3766  YZZ=             -0.0388
  YYZ=             -0.5839  XYZ=              0.0012
 Hexadecapole moment (field-independent basis, Debye-Ang**3):
 XXXX=            -16.0479 YYYY=            -16.2954 ZZZZ=            -16.1915 XXXY=             -0.0037
 XXXZ=              0.0866 YYYX=              0.0244 YYYZ=              0.0063 ZZZX=              0.2949
 ZZZY=             -0.0064 XXYY=             -5.6305 XXZZ=             -5.7363 YYZZ=             -5.4919
 XXYZ=              0.0002 YYXZ=             -0.3821 ZZXY=             -0.0207
 N-N= 1.346139735756D+01 E-N=-1.201302025421D+02  KE= 4.025694778222D+01
 No NMR shielding tensors so no spin-rotation constants.
 Leave Link  601 at Thu Feb 16 11:38:54 2023, MaxMem=   262144000 cpu:               0.2 elap:               0.1
 (Enter /binaries/g16/l9999.exe)
 Unable to Open any file for archive entry.
 1\1\GINC-WEB\FOpt\RM062X\def2TZVP\C1H4\CALCUS\16-Feb-2023\0\\#p opt M0
 62X/Def2TZVP\\File created by ccinput\\0,1\C,4.291804742,3.6587978272,
 -0.0012058284\H,4.6545700486,2.6331544335,-0.0010987632\H,4.6555738993
 ,4.1732212264,0.8854874402\H,4.6532513834,4.1699146689,-0.8910968685\H
 ,3.2038999268,3.6589118441,-0.0010859801\\Version=ES64L-G16RevC.01\Sta
 te=1-A\HF=-40.500284\RMSD=5.141e-09\RMSF=1.186e-04\Dipole=0.0000153,0.
 0000123,-0.0003229\Quadrupole=0.0000968,-0.0002581,0.0001613,-0.000360
 5,0.0012505,0.0018167\PG=C01 [X(C1H4)]\\@
 The archive entry for this job was punched.


 A DANDELION FROM A LOVER MEANS MORE THAN AN ORCHID FROM A FRIEND.
 Job cpu time:       0 days  0 hours  0 minutes 12.9 seconds.
 Elapsed time:       0 days  0 hours  0 minutes  3.5 seconds.
 File lengths (MBytes):  RWF=      6 Int=      0 D2E=      0 Chk=      1 Scr=      1
 Normal termination of Gaussian 16 at Thu Feb 16 11:38:54 2023.
