13
mep_MEP_trj_step1
C       -0.7427740        0.1430870        0.1263509
C        0.7130810       -0.1285490       -0.1635751
N        0.9070340       -0.4779270       -1.6130281
H       -0.8492850        0.3870440        1.2076699
H       -1.3629850       -0.7267470       -0.0697801
H       -1.1161730        0.9940510       -0.4358331
H        1.0639750       -0.9563860        0.4498509
H        1.3083880        0.7521660        0.0702839
O       -0.9165050        0.7406610        3.0099259
H       -1.8244750        0.9485580        3.2810549
H        0.3078570       -1.2806280       -1.8508491
H        1.8875170       -0.7154270       -1.8136841
H        0.6243450        0.3200970       -2.1983871
