 Entering Gaussian System, Link 0=g16
 Input=calc.com
 Output=calc.log
 Copyright (c) 1988,1990,1992,1993,1995,1998,2003,2009,2016,
            Gaussian, Inc.  All Rights Reserved.
  
 This is part of the Gaussian(R) 16 program.  It is based on
 the Gaussian(R) 09 system (copyright 2009, Gaussian, Inc.),
 the Gaussian(R) 03 system (copyright 2003, Gaussian, Inc.),
 the Gaussian(R) 98 system (copyright 1998, Gaussian, Inc.),
 the Gaussian(R) 94 system (copyright 1995, Gaussian, Inc.),
 the Gaussian 92(TM) system (copyright 1992, Gaussian, Inc.),
 the Gaussian 90(TM) system (copyright 1990, Gaussian, Inc.),
 the Gaussian 88(TM) system (copyright 1988, Gaussian, Inc.),
 the Gaussian 86(TM) system (copyright 1986, Carnegie Mellon
 University), and the Gaussian 82(TM) system (copyright 1983,
 Carnegie Mellon University). Gaussian is a federally registered
 trademark of Gaussian, Inc.
  
 This software contains proprietary and confidential information,
 including trade secrets, belonging to Gaussian, Inc.
  
 This software is provided under written license and may be
 used, copied, transmitted, or stored only in accord with that
 written license.
  
 The following legend is applicable only to US Government
 contracts under FAR:
  
                    RESTRICTED RIGHTS LEGEND
  
 Use, reproduction and disclosure by the US Government is
 subject to restrictions as set forth in subparagraphs (a)
 and (c) of the Commercial Computer Software - Restricted
 Rights clause in FAR 52.227-19.
  
 Gaussian, Inc.
 340 Quinnipiac St., Bldg. 40, Wallingford CT 06492
  
  
 ---------------------------------------------------------------
 Warning -- This program may not be used in any manner that
 competes with the business of Gaussian, Inc. or will provide
 assistance to any competitor of Gaussian, Inc.  The licensee
 of this program is prohibited from giving any competitor of
 Gaussian, Inc. access to this program.  By using this program,
 the user acknowledges that Gaussian, Inc. is engaged in the
 business of creating and licensing software in the field of
 computational chemistry and represents and warrants to the
 licensee that it is not a competitor of Gaussian, Inc. and that
 it will not use this program in any manner prohibited above.
 ---------------------------------------------------------------
  

 Cite this work as:
 Gaussian 16, Revision A.03,
 M. J. Frisch, G. W. Trucks, H. B. Schlegel, G. E. Scuseria, 
 M. A. Robb, J. R. Cheeseman, G. Scalmani, V. Barone, 
 G. A. Petersson, H. Nakatsuji, X. Li, M. Caricato, A. V. Marenich, 
 J. Bloino, B. G. Janesko, R. Gomperts, B. Mennucci, H. P. Hratchian, 
 J. V. Ortiz, A. F. Izmaylov, J. L. Sonnenberg, D. Williams-Young, 
 F. Ding, F. Lipparini, F. Egidi, J. Goings, B. Peng, A. Petrone, 
 T. Henderson, D. Ranasinghe, V. G. Zakrzewski, J. Gao, N. Rega, 
 G. Zheng, W. Liang, M. Hada, M. Ehara, K. Toyota, R. Fukuda, 
 J. Hasegawa, M. Ishida, T. Nakajima, Y. Honda, O. Kitao, H. Nakai, 
 T. Vreven, K. Throssell, J. A. Montgomery, Jr., J. E. Peralta, 
 F. Ogliaro, M. J. Bearpark, J. J. Heyd, E. N. Brothers, K. N. Kudin, 
 V. N. Staroverov, T. A. Keith, R. Kobayashi, J. Normand, 
 K. Raghavachari, A. P. Rendell, J. C. Burant, S. S. Iyengar, 
 J. Tomasi, M. Cossi, J. M. Millam, M. Klene, C. Adamo, R. Cammi, 
 J. W. Ochterski, R. L. Martin, K. Morokuma, O. Farkas, 
 J. B. Foresman, and D. J. Fox, Gaussian, Inc., Wallingford CT, 2016.
 
 ******************************************
 Gaussian 16:  EM64L-G16RevA.03 25-Dec-2016
                12-Jun-2019 
 ******************************************
 %chk=in.chk
 %nproc=8
 Will use up to    8 processors via shared memory.
 %mem=8192MB
 ----------------------------------
 #p opt(modredundant) M062X/Def2SVP
 ----------------------------------
 1/18=120,19=15,26=3,38=1/1,3;
 2/9=110,12=2,17=6,18=5,40=1/2;
 3/5=43,7=101,11=2,25=1,30=1,71=1,74=-55/1,2,3;
 4//1;
 5/5=2,38=5/2;
 6/7=2,8=2,9=2,10=2,28=1/1;
 7//1,2,3,16;
 1/18=20,19=15,26=3/3(2);
 2/9=110/2;
 99//99;
 2/9=110/2;
 3/5=43,7=101,11=2,25=1,30=1,71=1,74=-55/1,2,3;
 4/5=5,16=3,69=1/1;
 5/5=2,38=5/2;
 7//1,2,3,16;
 1/18=20,19=15,26=3/3(-5);
 2/9=110/2;
 6/7=2,8=2,9=2,10=2,19=2,28=1/1;
 99/9=1/99;
 Leave Link    1 at Thu Oct 15 06:18:42 2020, MaxMem=  1073741824 cpu:               0.4 elap:               0.1
 (Enter l101.exe)
 ------
 CalcUS
 ------
 Symbolic Z-matrix:
 Charge =  0 Multiplicity = 1
 C                     1.04743  -0.01292   0.08913 
 C                     2.55948  -0.01292   0.08913 
 H                     0.66306  -0.82875   0.70857 
 H                     0.66305  -0.14145  -0.92711 
 H                     0.66306   0.93144   0.48595 
 H                     2.94386  -0.95728  -0.30768 
 H                     2.94386   0.11561   1.10538 
 H                     2.94386   0.80292  -0.5303 
 
 The following ModRedundant input section has been read:
 D       4       1       2       7 S   9 -10.00                                
 
 ITRead=  0  0  0  0  0  0  0  0
 MicOpt= -1 -1 -1 -1 -1 -1 -1 -1
 NAtoms=      8 NQM=        8 NQMF=       0 NMMI=      0 NMMIF=      0
                NMic=       0 NMicF=      0.
                    Isotopes and Nuclear Properties:
 (Nuclear quadrupole moments (NQMom) in fm**2, nuclear magnetic moments (NMagM)
  in nuclear magnetons)

  Atom         1           2           3           4           5           6           7           8
 IAtWgt=          12          12           1           1           1           1           1           1
 AtmWgt=  12.0000000  12.0000000   1.0078250   1.0078250   1.0078250   1.0078250   1.0078250   1.0078250
 NucSpn=           0           0           1           1           1           1           1           1
 AtZEff=  -0.0000000  -0.0000000  -0.0000000  -0.0000000  -0.0000000  -0.0000000  -0.0000000  -0.0000000
 NQMom=    0.0000000   0.0000000   0.0000000   0.0000000   0.0000000   0.0000000   0.0000000   0.0000000
 NMagM=    0.0000000   0.0000000   2.7928460   2.7928460   2.7928460   2.7928460   2.7928460   2.7928460
 AtZNuc=   6.0000000   6.0000000   1.0000000   1.0000000   1.0000000   1.0000000   1.0000000   1.0000000
 Leave Link  101 at Thu Oct 15 06:18:42 2020, MaxMem=  1073741824 cpu:               0.7 elap:               0.1
 (Enter l103.exe)

 GradGradGradGradGradGradGradGradGradGradGradGradGradGradGradGradGradGrad
 Berny optimization.
 Initialization pass.
                           ----------------------------
                           !    Initial Parameters    !
                           ! (Angstroms and Degrees)  !
 --------------------------                            --------------------------
 ! Name  Definition              Value          Derivative Info.                !
 --------------------------------------------------------------------------------
 ! R1    R(1,2)                  1.5121         estimate D2E/DX2                !
 ! R2    R(1,3)                  1.0941         estimate D2E/DX2                !
 ! R3    R(1,4)                  1.0941         estimate D2E/DX2                !
 ! R4    R(1,5)                  1.0941         estimate D2E/DX2                !
 ! R5    R(2,6)                  1.0941         estimate D2E/DX2                !
 ! R6    R(2,7)                  1.0941         estimate D2E/DX2                !
 ! R7    R(2,8)                  1.0941         estimate D2E/DX2                !
 ! A1    A(2,1,3)              110.5678         estimate D2E/DX2                !
 ! A2    A(2,1,4)              110.5685         estimate D2E/DX2                !
 ! A3    A(2,1,5)              110.5679         estimate D2E/DX2                !
 ! A4    A(3,1,4)              108.3526         estimate D2E/DX2                !
 ! A5    A(3,1,5)              108.3522         estimate D2E/DX2                !
 ! A6    A(4,1,5)              108.3527         estimate D2E/DX2                !
 ! A7    A(1,2,6)              110.5684         estimate D2E/DX2                !
 ! A8    A(1,2,7)              110.5683         estimate D2E/DX2                !
 ! A9    A(1,2,8)              110.5683         estimate D2E/DX2                !
 ! A10   A(6,2,7)              108.352          estimate D2E/DX2                !
 ! A11   A(6,2,8)              108.3527         estimate D2E/DX2                !
 ! A12   A(7,2,8)              108.3518         estimate D2E/DX2                !
 ! D1    D(3,1,2,6)             60.0002         estimate D2E/DX2                !
 ! D2    D(3,1,2,7)            -59.9997         estimate D2E/DX2                !
 ! D3    D(3,1,2,8)           -179.9992         estimate D2E/DX2                !
 ! D4    D(4,1,2,6)            -60.0001         estimate D2E/DX2                !
 ! D5    D(4,1,2,7)           -179.9999         Scan                            !
 ! D6    D(4,1,2,8)             60.0005         estimate D2E/DX2                !
 ! D7    D(5,1,2,6)            179.9995         estimate D2E/DX2                !
 ! D8    D(5,1,2,7)             59.9997         estimate D2E/DX2                !
 ! D9    D(5,1,2,8)            -59.9999         estimate D2E/DX2                !
 --------------------------------------------------------------------------------
 Trust Radius=3.00D-01 FncErr=1.00D-07 GrdErr=1.00D-06 EigMax=2.50D+02 EigMin=1.00D-04
 Number of optimizations in scan=  10
 Number of steps in this run=     38 maximum allowed number of steps=    100.
 GradGradGradGradGradGradGradGradGradGradGradGradGradGradGradGradGradGrad

 Leave Link  103 at Thu Oct 15 06:18:42 2020, MaxMem=  1073741824 cpu:               0.2 elap:               0.1
 (Enter l202.exe)
                          Input orientation:                          
 ---------------------------------------------------------------------
 Center     Atomic      Atomic             Coordinates (Angstroms)
 Number     Number       Type             X           Y           Z
 ---------------------------------------------------------------------
      1          6           0        1.047430   -0.012920    0.089130
      2          6           0        2.559480   -0.012920    0.089130
      3          1           0        0.663060   -0.828750    0.708570
      4          1           0        0.663050   -0.141450   -0.927110
      5          1           0        0.663060    0.931440    0.485950
      6          1           0        2.943860   -0.957280   -0.307680
      7          1           0        2.943860    0.115610    1.105380
      8          1           0        2.943860    0.802920   -0.530300
 ---------------------------------------------------------------------
                    Distance matrix (angstroms):
                    1          2          3          4          5
     1  C    0.000000
     2  C    1.512050   0.000000
     3  H    1.094086   2.155387   0.000000
     4  H    1.094080   2.155391   1.774213   0.000000
     5  H    1.094085   2.155386   1.774212   1.774213   0.000000
     6  H    2.155393   1.094085   2.500267   2.500273   3.065805
     7  H    2.155396   1.094090   2.500265   3.065810   2.500264
     8  H    2.155397   1.094092   3.065811   2.500277   2.500266
                    6          7          8
     6  H    0.000000
     7  H    1.774213   0.000000
     8  H    1.774222   1.774216   0.000000
 This structure is nearly, but not quite of a higher symmetry.
 Consider Symm=Loose if the higher symmetry is desired.
 Stoichiometry    C2H6
 Framework group  C1[X(C2H6)]
 Deg. of freedom    18
 Full point group                 C1      NOp   1
 Largest Abelian subgroup         C1      NOp   1
 Largest concise Abelian subgroup C1      NOp   1
                         Standard orientation:                         
 ---------------------------------------------------------------------
 Center     Atomic      Atomic             Coordinates (Angstroms)
 Number     Number       Type             X           Y           Z
 ---------------------------------------------------------------------
      1          6           0        0.080998   -0.227602   -0.716388
      2          6           0       -0.081001    0.227601    0.716386
      3          1           0        0.446570    0.592682   -1.341302
      4          1           0       -0.876071   -0.569308   -1.121687
      5          1           0        0.796059   -1.053320   -0.778839
      6          1           0       -0.796054    1.053325    0.778846
      7          1           0        0.876077    0.569311    1.121684
      8          1           0       -0.446561   -0.592685    1.341312
 ---------------------------------------------------------------------
 Rotational constants (GHZ):          79.6507094          20.4157342          20.4157201
 Leave Link  202 at Thu Oct 15 06:18:42 2020, MaxMem=  1073741824 cpu:               0.2 elap:               0.0
 (Enter l301.exe)
 Standard basis: def2SVP (5D, 7F)
 Ernie: Thresh=  0.10000D-02 Tol=  0.10000D-05 Strict=F.
 There are    60 symmetry adapted cartesian basis functions of A   symmetry.
 There are    58 symmetry adapted basis functions of A   symmetry.
    58 basis functions,    92 primitive gaussians,    60 cartesian basis functions
     9 alpha electrons        9 beta electrons
       nuclear repulsion energy        42.4269202184 Hartrees.
 IExCor= 4336 DFT=T Ex+Corr=M062X ExCW=0 ScaHFX=  0.540000
 ScaDFX=  1.000000  1.000000  1.000000  1.000000 ScalE2=  1.000000  1.000000
 IRadAn=      5 IRanWt=     -1 IRanGd=            0 ICorTp=0 IEmpDi=  4
 NAtoms=    8 NActive=    8 NUniq=    8 SFac= 1.00D+00 NAtFMM=   60 NAOKFM=F Big=F
 Integral buffers will be    131072 words long.
 Raffenetti 2 integral format.
 Two-electron integral symmetry is turned on.
 Leave Link  301 at Thu Oct 15 06:18:43 2020, MaxMem=  1073741824 cpu:               0.3 elap:               0.1
 (Enter l302.exe)
 NPDir=0 NMtPBC=     1 NCelOv=     1 NCel=       1 NClECP=     1 NCelD=      1
         NCelK=      1 NCelE2=     1 NClLst=     1 CellRange=     0.0.
 One-electron integrals computed using PRISM.
 One-electron integral symmetry used in STVInt
   1 Symmetry operations used in ECPInt.
 ECPInt:  NShTT=     465 NPrTT=    1529 LenC2=     466 LenP2D=    1445.
 LDataN:  DoStor=T MaxTD1= 4 Len=   56
 NBasis=    58 RedAO= T EigKep=  4.21D-03  NBF=    58
 NBsUse=    58 1.00D-06 EigRej= -1.00D+00 NBFU=    58
 Precomputing XC quadrature grid using
 IXCGrd= 4 IRadAn=           5 IRanWt=          -1 IRanGd=           0 AccXCQ= 0.00D+00.
 Generated NRdTot=       0 NPtTot=           0 NUsed=           0 NTot=          32
 NSgBfM=    60    60    60    60    60 MxSgAt=     8 MxSgA2=     8.
 Leave Link  302 at Thu Oct 15 06:18:43 2020, MaxMem=  1073741824 cpu:               1.4 elap:               0.3
 (Enter l303.exe)
 DipDrv:  MaxL=1.
 Leave Link  303 at Thu Oct 15 06:18:43 2020, MaxMem=  1073741824 cpu:               0.9 elap:               0.2
 (Enter l401.exe)
 ExpMin= 1.22D-01 ExpMax= 1.24D+03 ExpMxC= 1.86D+02 IAcc=3 IRadAn=         5 AccDes= 0.00D+00
 Harris functional with IExCor= 1009 and IRadAn=       5 diagonalized for initial guess.
 HarFok:  IExCor= 1009 AccDes= 0.00D+00 IRadAn=         5 IDoV= 1 UseB2=F ITyADJ=14
 ICtDFT=  3500011 ScaDFX=  1.000000  1.000000  1.000000  1.000000
 FoFCou: FMM=F IPFlag=           0 FMFlag=      100000 FMFlg1=           0
         NFxFlg=           0 DoJE=T BraDBF=F KetDBF=T FulRan=T
         wScrn=  0.000000 ICntrl=       500 IOpCl=  0 I1Cent=   200000004 NGrid=           0
         NMat0=    1 NMatS0=      1 NMatT0=    0 NMatD0=    1 NMtDS0=    0 NMtDT0=    0
 Petite list used in FoFCou.
 Harris En= -79.7395984774366    
 JPrj=0 DoOrth=F DoCkMO=F.
 Leave Link  401 at Thu Oct 15 06:18:44 2020, MaxMem=  1073741824 cpu:               2.9 elap:               0.5
 (Enter l502.exe)
 Keep R1 ints in memory in canonical form, NReq=8542056.
 FoFCou: FMM=F IPFlag=           0 FMFlag=           0 FMFlg1=           0
         NFxFlg=           0 DoJE=F BraDBF=F KetDBF=F FulRan=T
         wScrn=  0.000000 ICntrl=       600 IOpCl=  0 I1Cent=           0 NGrid=           0
         NMat0=    1 NMatS0=   1711 NMatT0=    0 NMatD0=    1 NMtDS0=    0 NMtDT0=    0
 Symmetry not used in FoFCou.
 Two-electron integral symmetry not used.
 Closed shell SCF:
 Using DIIS extrapolation, IDIIS=  1040.
 NGot=  1073741824 LenX=  1072268660 LenY=  1072264619
 Requested convergence on RMS density matrix=1.00D-08 within 128 cycles.
 Requested convergence on MAX density matrix=1.00D-06.
 Requested convergence on             energy=1.00D-06.
 No special actions if energy rises.
 Integral accuracy reduced to 1.0D-05 until final iterations.

 Cycle   1  Pass 0  IDiag  1:
 E= -79.5929343664244    
 DIIS: error= 4.55D-02 at cycle   1 NSaved=   1.
 NSaved= 1 IEnMin= 1 EnMin= -79.5929343664244     IErMin= 1 ErrMin= 4.55D-02
 ErrMax= 4.55D-02  0.00D+00 EMaxC= 1.00D-01 BMatC= 1.03D-01 BMatP= 1.03D-01
 IDIUse=3 WtCom= 5.45D-01 WtEn= 4.55D-01
 Coeff-Com:  0.100D+01
 Coeff-En:   0.100D+01
 Coeff:      0.100D+01
 Gap=     0.441 Goal=   None    Shift=    0.000
 GapD=    0.441 DampG=2.000 DampE=0.500 DampFc=1.0000 IDamp=-1.
 RMSDP=9.53D-03 MaxDP=1.37D-01              OVMax= 1.52D-01

 Cycle   2  Pass 0  IDiag  1:
 E= -79.6283921262510     Delta-E=       -0.035457759827 Rises=F Damp=F
 DIIS: error= 3.94D-02 at cycle   2 NSaved=   2.
 NSaved= 2 IEnMin= 2 EnMin= -79.6283921262510     IErMin= 2 ErrMin= 3.94D-02
 ErrMax= 3.94D-02  0.00D+00 EMaxC= 1.00D-01 BMatC= 7.56D-02 BMatP= 1.03D-01
 IDIUse=3 WtCom= 6.06D-01 WtEn= 3.94D-01
 Coeff-Com:  0.460D+00 0.540D+00
 Coeff-En:   0.399D+00 0.601D+00
 Coeff:      0.436D+00 0.564D+00
 Gap=     0.539 Goal=   None    Shift=    0.000
 RMSDP=4.47D-03 MaxDP=6.43D-02 DE=-3.55D-02 OVMax= 7.26D-02

 Cycle   3  Pass 0  IDiag  1:
 E= -79.7095543890536     Delta-E=       -0.081162262803 Rises=F Damp=F
 DIIS: error= 3.88D-03 at cycle   3 NSaved=   3.
 NSaved= 3 IEnMin= 3 EnMin= -79.7095543890536     IErMin= 3 ErrMin= 3.88D-03
 ErrMax= 3.88D-03  0.00D+00 EMaxC= 1.00D-01 BMatC= 4.34D-04 BMatP= 7.56D-02
 IDIUse=3 WtCom= 9.61D-01 WtEn= 3.88D-02
 Coeff-Com:  0.287D-01 0.906D-01 0.881D+00
 Coeff-En:   0.000D+00 0.000D+00 0.100D+01
 Coeff:      0.276D-01 0.871D-01 0.885D+00
 Gap=     0.505 Goal=   None    Shift=    0.000
 RMSDP=2.60D-04 MaxDP=3.60D-03 DE=-8.12D-02 OVMax= 5.70D-03

 Cycle   4  Pass 0  IDiag  1:
 E= -79.7099821578325     Delta-E=       -0.000427768779 Rises=F Damp=F
 DIIS: error= 5.68D-04 at cycle   4 NSaved=   4.
 NSaved= 4 IEnMin= 4 EnMin= -79.7099821578325     IErMin= 4 ErrMin= 5.68D-04
 ErrMax= 5.68D-04  0.00D+00 EMaxC= 1.00D-01 BMatC= 4.65D-06 BMatP= 4.34D-04
 IDIUse=3 WtCom= 9.94D-01 WtEn= 5.68D-03
 Coeff-Com: -0.634D-02-0.160D-02 0.125D+00 0.882D+00
 Coeff-En:   0.000D+00 0.000D+00 0.000D+00 0.100D+01
 Coeff:     -0.631D-02-0.160D-02 0.125D+00 0.883D+00
 Gap=     0.505 Goal=   None    Shift=    0.000
 RMSDP=4.27D-05 MaxDP=3.51D-04 DE=-4.28D-04 OVMax= 8.76D-04

 Cycle   5  Pass 0  IDiag  1:
 E= -79.7099867708409     Delta-E=       -0.000004613008 Rises=F Damp=F
 DIIS: error= 2.43D-05 at cycle   5 NSaved=   5.
 NSaved= 5 IEnMin= 5 EnMin= -79.7099867708409     IErMin= 5 ErrMin= 2.43D-05
 ErrMax= 2.43D-05  0.00D+00 EMaxC= 1.00D-01 BMatC= 2.18D-08 BMatP= 4.65D-06
 IDIUse=1 WtCom= 1.00D+00 WtEn= 0.00D+00
 Coeff-Com:  0.499D-03-0.627D-03-0.226D-01-0.769D-01 0.110D+01
 Coeff:      0.499D-03-0.627D-03-0.226D-01-0.769D-01 0.110D+01
 Gap=     0.505 Goal=   None    Shift=    0.000
 RMSDP=6.00D-06 MaxDP=5.43D-05 DE=-4.61D-06 OVMax= 9.00D-05

 Initial convergence to 1.0D-05 achieved.  Increase integral accuracy.
 Cycle   6  Pass 1  IDiag  1:
 E= -79.7099855105617     Delta-E=        0.000001260279 Rises=F Damp=F
 DIIS: error= 1.25D-05 at cycle   1 NSaved=   1.
 NSaved= 1 IEnMin= 1 EnMin= -79.7099855105617     IErMin= 1 ErrMin= 1.25D-05
 ErrMax= 1.25D-05  0.00D+00 EMaxC= 1.00D-01 BMatC= 1.80D-08 BMatP= 1.80D-08
 IDIUse=1 WtCom= 1.00D+00 WtEn= 0.00D+00
 Coeff-Com:  0.100D+01
 Coeff:      0.100D+01
 Gap=     0.505 Goal=   None    Shift=    0.000
 RMSDP=6.00D-06 MaxDP=5.43D-05 DE= 1.26D-06 OVMax= 3.61D-05

 Cycle   7  Pass 1  IDiag  1:
 E= -79.7099855288130     Delta-E=       -0.000000018251 Rises=F Damp=F
 DIIS: error= 2.94D-06 at cycle   2 NSaved=   2.
 NSaved= 2 IEnMin= 2 EnMin= -79.7099855288130     IErMin= 2 ErrMin= 2.94D-06
 ErrMax= 2.94D-06  0.00D+00 EMaxC= 1.00D-01 BMatC= 5.39D-10 BMatP= 1.80D-08
 IDIUse=1 WtCom= 1.00D+00 WtEn= 0.00D+00
 Coeff-Com: -0.947D-02 0.101D+01
 Coeff:     -0.947D-02 0.101D+01
 Gap=     0.505 Goal=   None    Shift=    0.000
 RMSDP=8.24D-07 MaxDP=7.97D-06 DE=-1.83D-08 OVMax= 1.18D-05

 Cycle   8  Pass 1  IDiag  1:
 E= -79.7099855291370     Delta-E=       -0.000000000324 Rises=F Damp=F
 DIIS: error= 2.57D-06 at cycle   3 NSaved=   3.
 NSaved= 3 IEnMin= 3 EnMin= -79.7099855291370     IErMin= 3 ErrMin= 2.57D-06
 ErrMax= 2.57D-06  0.00D+00 EMaxC= 1.00D-01 BMatC= 3.03D-10 BMatP= 5.39D-10
 IDIUse=1 WtCom= 1.00D+00 WtEn= 0.00D+00
 Coeff-Com: -0.339D-01 0.438D+00 0.596D+00
 Coeff:     -0.339D-01 0.438D+00 0.596D+00
 Gap=     0.505 Goal=   None    Shift=    0.000
 RMSDP=2.68D-07 MaxDP=4.26D-06 DE=-3.24D-10 OVMax= 4.47D-06

 Cycle   9  Pass 1  IDiag  1:
 E= -79.7099855294535     Delta-E=       -0.000000000317 Rises=F Damp=F
 DIIS: error= 2.12D-07 at cycle   4 NSaved=   4.
 NSaved= 4 IEnMin= 4 EnMin= -79.7099855294535     IErMin= 4 ErrMin= 2.12D-07
 ErrMax= 2.12D-07  0.00D+00 EMaxC= 1.00D-01 BMatC= 1.68D-12 BMatP= 3.03D-10
 IDIUse=1 WtCom= 1.00D+00 WtEn= 0.00D+00
 Coeff-Com: -0.369D-02 0.139D-01 0.708D-01 0.919D+00
 Coeff:     -0.369D-02 0.139D-01 0.708D-01 0.919D+00
 Gap=     0.505 Goal=   None    Shift=    0.000
 RMSDP=4.06D-08 MaxDP=3.95D-07 DE=-3.17D-10 OVMax= 4.94D-07

 Cycle  10  Pass 1  IDiag  1:
 E= -79.7099855294556     Delta-E=       -0.000000000002 Rises=F Damp=F
 DIIS: error= 1.88D-08 at cycle   5 NSaved=   5.
 NSaved= 5 IEnMin= 5 EnMin= -79.7099855294556     IErMin= 5 ErrMin= 1.88D-08
 ErrMax= 1.88D-08  0.00D+00 EMaxC= 1.00D-01 BMatC= 3.18D-14 BMatP= 1.68D-12
 IDIUse=1 WtCom= 1.00D+00 WtEn= 0.00D+00
 Coeff-Com:  0.104D-02-0.141D-01-0.191D-01 0.360D-02 0.103D+01
 Coeff:      0.104D-02-0.141D-01-0.191D-01 0.360D-02 0.103D+01
 Gap=     0.505 Goal=   None    Shift=    0.000
 RMSDP=1.00D-08 MaxDP=9.23D-08 DE=-2.07D-12 OVMax= 1.29D-07

 Cycle  11  Pass 1  IDiag  1:
 E= -79.7099855294557     Delta-E=       -0.000000000000 Rises=F Damp=F
 DIIS: error= 2.48D-09 at cycle   6 NSaved=   6.
 NSaved= 6 IEnMin= 6 EnMin= -79.7099855294557     IErMin= 6 ErrMin= 2.48D-09
 ErrMax= 2.48D-09  0.00D+00 EMaxC= 1.00D-01 BMatC= 4.34D-16 BMatP= 3.18D-14
 IDIUse=1 WtCom= 1.00D+00 WtEn= 0.00D+00
 Coeff-Com:  0.604D-04-0.235D-03-0.988D-03-0.136D-01-0.759D-02 0.102D+01
 Coeff:      0.604D-04-0.235D-03-0.988D-03-0.136D-01-0.759D-02 0.102D+01
 Gap=     0.505 Goal=   None    Shift=    0.000
 RMSDP=1.22D-09 MaxDP=9.59D-09 DE=-8.53D-14 OVMax= 1.90D-08

 SCF Done:  E(RM062X) =  -79.7099855295     A.U. after   11 cycles
            NFock= 11  Conv=0.12D-08     -V/T= 2.0129
 KE= 7.869338945856D+01 PE=-2.681797879849D+02 EE= 6.734949277843D+01
 Leave Link  502 at Thu Oct 15 06:18:46 2020, MaxMem=  1073741824 cpu:              12.1 elap:               1.9
 (Enter l601.exe)
 Copying SCF densities to generalized density rwf, IOpCl= 0 IROHF=0.

 **********************************************************************

            Population analysis using the SCF density.

 **********************************************************************

 Orbital symmetries:
       Occupied  (A) (A) (A) (A) (A) (A) (A) (A) (A)
       Virtual   (A) (A) (A) (A) (A) (A) (A) (A) (A) (A) (A) (A)
                 (A) (A) (A) (A) (A) (A) (A) (A) (A) (A) (A) (A)
                 (A) (A) (A) (A) (A) (A) (A) (A) (A) (A) (A) (A)
                 (A) (A) (A) (A) (A) (A) (A) (A) (A) (A) (A) (A)
                 (A)
 The electronic state is 1-A.
 Alpha  occ. eigenvalues --  -10.53723 -10.53700  -0.84109  -0.68655  -0.50282
 Alpha  occ. eigenvalues --   -0.50282  -0.42577  -0.39966  -0.39966
 Alpha virt. eigenvalues --    0.10578   0.15756   0.16958   0.16958   0.19972
 Alpha virt. eigenvalues --    0.19972   0.28396   0.46696   0.46696   0.47104
 Alpha virt. eigenvalues --    0.56112   0.56112   0.69467   0.70665   0.74563
 Alpha virt. eigenvalues --    0.74991   0.74992   0.75547   0.75548   0.81979
 Alpha virt. eigenvalues --    1.00724   1.16682   1.16682   1.42879   1.42879
 Alpha virt. eigenvalues --    1.59092   1.59707   1.79849   1.83054   1.83054
 Alpha virt. eigenvalues --    1.83215   1.83215   1.88507   1.88507   1.89124
 Alpha virt. eigenvalues --    2.08237   2.08238   2.25039   2.39833   2.39834
 Alpha virt. eigenvalues --    2.45042   2.59603   2.59603   2.67292   2.87108
 Alpha virt. eigenvalues --    2.96024   2.96024   3.04034   3.04035
          Condensed to atoms (all electrons):
               1          2          3          4          5          6
     1  C    4.573990   0.434879   0.399775   0.399777   0.399776  -0.026659
     2  C    0.434879   4.574001  -0.026661  -0.026661  -0.026660   0.399776
     3  H    0.399775  -0.026661   0.639207  -0.024055  -0.024056  -0.007331
     4  H    0.399777  -0.026661  -0.024055   0.639207  -0.024056  -0.007331
     5  H    0.399776  -0.026660  -0.024056  -0.024056   0.639206   0.007711
     6  H   -0.026659   0.399776  -0.007331  -0.007331   0.007711   0.639205
     7  H   -0.026661   0.399775  -0.007331   0.007711  -0.007331  -0.024056
     8  H   -0.026661   0.399775   0.007711  -0.007331  -0.007331  -0.024056
               7          8
     1  C   -0.026661  -0.026661
     2  C    0.399775   0.399775
     3  H   -0.007331   0.007711
     4  H    0.007711  -0.007331
     5  H   -0.007331  -0.007331
     6  H   -0.024056  -0.024056
     7  H    0.639210  -0.024055
     8  H   -0.024055   0.639206
 Mulliken charges:
               1
     1  C   -0.128215
     2  C   -0.128224
     3  H    0.042740
     4  H    0.042738
     5  H    0.042741
     6  H    0.042741
     7  H    0.042738
     8  H    0.042741
 Sum of Mulliken charges =  -0.00000
 Mulliken charges with hydrogens summed into heavy atoms:
               1
     1  C    0.000003
     2  C   -0.000003
 Electronic spatial extent (au):  <R**2>=            108.3163
 Charge=             -0.0000 electrons
 Dipole moment (field-independent basis, Debye):
    X=              0.0000    Y=              0.0000    Z=             -0.0000  Tot=              0.0000
 Quadrupole moment (field-independent basis, Debye-Ang):
   XX=            -14.7340   YY=            -14.8015   ZZ=            -15.4898
   XY=              0.0275   XZ=              0.0865   YZ=             -0.2432
 Traceless Quadrupole moment (field-independent basis, Debye-Ang):
   XX=              0.2744   YY=              0.2069   ZZ=             -0.4814
   XY=              0.0275   XZ=              0.0865   YZ=             -0.2432
 Octapole moment (field-independent basis, Debye-Ang**2):
  XXX=              0.0000  YYY=              0.0000  ZZZ=             -0.0000  XYY=             -0.0000
  XXY=             -0.0000  XXZ=             -0.0000  XZZ=             -0.0000  YZZ=             -0.0000
  YYZ=              0.0000  XYZ=             -0.0000
 Hexadecapole moment (field-independent basis, Debye-Ang**3):
 XXXX=            -29.9433 YYYY=            -34.8741 ZZZZ=            -85.0187 XXXY=              0.9952
 XXXZ=              3.8599 YYYX=              0.2151 YYYZ=             -8.7824 ZZZX=              3.1182
 ZZZY=             -9.7523 XXYY=             -9.9908 XXZZ=            -18.4350 YYZZ=            -19.2489
 XXYZ=             -2.1689 YYXZ=              0.3900 ZZXY=              1.1305
 N-N= 4.242692021843D+01 E-N=-2.681797879748D+02  KE= 7.869338945856D+01
 No NMR shielding tensors so no spin-rotation constants.
 Leave Link  601 at Thu Oct 15 06:18:47 2020, MaxMem=  1073741824 cpu:               1.9 elap:               0.4
 (Enter l701.exe)
 ... and contract with generalized density number  0.
 Compute integral first derivatives.
   1 Symmetry operations used in ECPInt.
 ECPInt:  NShTT=     465 NPrTT=    1529 LenC2=     466 LenP2D=    1445.
 LDataN:  DoStor=T MaxTD1= 5 Len=  102
 Leave Link  701 at Thu Oct 15 06:18:47 2020, MaxMem=  1073741824 cpu:               1.8 elap:               0.3
 (Enter l702.exe)
 L702 exits ... SP integral derivatives will be done elsewhere.
 Leave Link  702 at Thu Oct 15 06:18:48 2020, MaxMem=  1073741824 cpu:               0.4 elap:               0.1
 (Enter l703.exe)
 Integral derivatives from FoFJK, PRISM(SPDF).
 Compute integral first derivatives, UseDBF=F ICtDFT=           0.
 Calling FoFJK, ICntrl=      2127 FMM=F ISym2X=0 I1Cent= 0 IOpClX= 0 NMat=1 NMatS=1 NMatT=0.
 FoFJK:  IHMeth= 1 ICntrl=    2127 DoSepK=F KAlg= 0 I1Cent=           0 FoldK=F
 IRaf=         0 NMat=       1 IRICut=       1 DoRegI=T DoRafI=F ISym2E= 0 IDoP0=0 IntGTp=1.
 FoFCou: FMM=F IPFlag=           0 FMFlag=      100000 FMFlg1=         800
         NFxFlg=           0 DoJE=F BraDBF=F KetDBF=F FulRan=T
         wScrn=  0.000000 ICntrl=      2127 IOpCl=  0 I1Cent=           0 NGrid=           0
         NMat0=    1 NMatS0=      1 NMatT0=    0 NMatD0=    1 NMtDS0=    0 NMtDT0=    0
 Symmetry not used in FoFCou.
 Leave Link  703 at Thu Oct 15 06:18:48 2020, MaxMem=  1073741824 cpu:               3.1 elap:               0.5
 (Enter l716.exe)
 Dipole        = 1.35553120D-06 5.44282422D-07-2.12634181D-06
 ***** Axes restored to original set *****
 -------------------------------------------------------------------
 Center     Atomic                   Forces (Hartrees/Bohr)
 Number     Number              X              Y              Z
 -------------------------------------------------------------------
      1        6          -0.000046904    0.000003675   -0.000000733
      2        6           0.000051620   -0.000000059    0.000005965
      3        1          -0.003299506   -0.001854180    0.001411618
      4        1          -0.003303648   -0.000291788   -0.002315578
      5        1          -0.003304324    0.002142149    0.000903099
      6        1           0.003303826   -0.002141931   -0.000904139
      7        1           0.003301122    0.000291148    0.002310273
      8        1           0.003297813    0.001850986   -0.001410504
 -------------------------------------------------------------------
 Cartesian Forces:  Max     0.003304324 RMS     0.002020084
 Leave Link  716 at Thu Oct 15 06:18:49 2020, MaxMem=  1073741824 cpu:               0.2 elap:               0.1
 (Enter l103.exe)

 GradGradGradGradGradGradGradGradGradGradGradGradGradGradGradGradGradGrad
 Berny optimization.
 FormGI is forming the generalized inverse of G from B-inverse, IUseBI=4.
 Internal  Forces:  Max     0.009954382 RMS     0.002864255
 Search for a local minimum.
 Step number   1 out of a maximum of   38 on scan point     1 out of    10
 All quantities printed in internal units (Hartrees-Bohrs-Radians)
 RMS Force = .29168D-02 SwitMx=.10000D-02 MixMth= 1
 Mixed Optimization -- RFO/linear search
 Second derivative matrix not updated -- first step.
 ITU=  0
     Eigenvalues ---    0.02015   0.05762   0.05762   0.05762   0.16000
     Eigenvalues ---    0.16000   0.16000   0.16000   0.16000   0.16000
     Eigenvalues ---    0.31145   0.34344   0.34344   0.34345   0.34345
     Eigenvalues ---    0.34345   0.343451000.000001000.000001000.00000
     Eigenvalues --- 1000.000001000.000001000.000001000.000001000.00000
     Eigenvalues --- 1000.000001000.000001000.00000
 RFO step:  Lambda=-9.07429119D-04 EMin= 2.01513895D-02
 Linear search not attempted -- first point.
 Iteration  1 RMS(Cart)=  0.02185989 RMS(Int)=  0.00010173
 Iteration  2 RMS(Cart)=  0.00008614 RMS(Int)=  0.00006230
 Iteration  3 RMS(Cart)=  0.00000000 RMS(Int)=  0.00006230
 Iteration  1 RMS(Cart)=  0.00000000 RMS(Int)=  0.00000000
 ITry= 1 IFail=0 DXMaxC= 4.64D-02 DCOld= 1.00D+10 DXMaxT= 3.00D-01 DXLimC= 3.00D+00 Rises=F
 Variable       Old X    -DE/DX   Delta X   Delta X   Delta X     New X
                                 (Linear)    (Quad)   (Total)
    R1        2.85736   0.00995   0.00000   0.03187   0.03187   2.88923
    R2        2.06752   0.00334   0.00000   0.00970   0.00970   2.07722
    R3        2.06751   0.00335   0.00000   0.00972   0.00972   2.07723
    R4        2.06752   0.00334   0.00000   0.00969   0.00969   2.07721
    R5        2.06752   0.00334   0.00000   0.00969   0.00969   2.07721
    R6        2.06753   0.00334   0.00000   0.00970   0.00970   2.07723
    R7        2.06753   0.00334   0.00000   0.00969   0.00969   2.07722
    A1        1.92977   0.00226   0.00000   0.01401   0.01392   1.94369
    A2        1.92978   0.00226   0.00000   0.01405   0.01395   1.94373
    A3        1.92977   0.00226   0.00000   0.01406   0.01396   1.94373
    A4        1.89111  -0.00235   0.00000  -0.01457  -0.01466   1.87645
    A5        1.89110  -0.00235   0.00000  -0.01462  -0.01471   1.87639
    A6        1.89111  -0.00235   0.00000  -0.01460  -0.01469   1.87642
    A7        1.92978   0.00226   0.00000   0.01405   0.01395   1.94373
    A8        1.92978   0.00226   0.00000   0.01405   0.01395   1.94373
    A9        1.92978   0.00225   0.00000   0.01401   0.01391   1.94369
   A10        1.89110  -0.00235   0.00000  -0.01459  -0.01468   1.87642
   A11        1.89111  -0.00235   0.00000  -0.01463  -0.01472   1.87639
   A12        1.89110  -0.00234   0.00000  -0.01456  -0.01465   1.87644
    D1        1.04720   0.00000   0.00000   0.00004   0.00005   1.04725
    D2       -1.04719   0.00000   0.00000   0.00002   0.00002  -1.04717
    D3       -3.14158  -0.00000   0.00000  -0.00001  -0.00001  -3.14159
    D4       -1.04720   0.00000   0.00000   0.00002   0.00002  -1.04718
    D5       -3.14159   0.00000   0.00000   0.00000   0.00000  -3.14159
    D6        1.04721  -0.00000   0.00000  -0.00003  -0.00003   1.04718
    D7        3.14158   0.00000   0.00000   0.00001   0.00001   3.14159
    D8        1.04719  -0.00000   0.00000  -0.00001  -0.00002   1.04718
    D9       -1.04720  -0.00000   0.00000  -0.00005  -0.00005  -1.04724
         Item               Value     Threshold  Converged?
 Maximum Force            0.009954     0.000450     NO 
 RMS     Force            0.002917     0.000300     NO 
 Maximum Displacement     0.046405     0.001800     NO 
 RMS     Displacement     0.021895     0.001200     NO 
 Predicted change in Energy=-4.555387D-04
 Lowest energy point so far.  Saving SCF results.
 GradGradGradGradGradGradGradGradGradGradGradGradGradGradGradGradGradGrad

 Leave Link  103 at Thu Oct 15 06:18:49 2020, MaxMem=  1073741824 cpu:               0.7 elap:               0.1
 (Enter l202.exe)
                          Input orientation:                          
 ---------------------------------------------------------------------
 Center     Atomic      Atomic             Coordinates (Angstroms)
 Number     Number       Type             X           Y           Z
 ---------------------------------------------------------------------
      1          6           0        1.039000   -0.012914    0.089124
      2          6           0        2.567914   -0.012924    0.089141
      3          1           0        0.638530   -0.828197    0.708172
      4          1           0        0.638508   -0.141354   -0.926453
      5          1           0        0.638503    0.930808    0.485690
      6          1           0        2.968414   -0.956645   -0.307423
      7          1           0        2.968405    0.115515    1.104720
      8          1           0        2.968386    0.802362   -0.529902
 ---------------------------------------------------------------------
                    Distance matrix (angstroms):
                    1          2          3          4          5
     1  C    0.000000
     2  C    1.528914   0.000000
     3  H    1.099220   2.184123   0.000000
     4  H    1.099222   2.184155   1.773064   0.000000
     5  H    1.099215   2.184149   1.773019   1.773043   0.000000
     6  H    2.184151   1.099215   2.544856   2.544869   3.101611
     7  H    2.184155   1.099222   2.544830   3.101623   2.544866
     8  H    2.184125   1.099219   3.101577   2.544835   2.544854
                    6          7          8
     6  H    0.000000
     7  H    1.773041   0.000000
     8  H    1.773021   1.773061   0.000000
 Stoichiometry    C2H6
 Framework group  C1[X(C2H6)]
 Deg. of freedom    18
 Full point group                 C1      NOp   1
 RotChk:  IX=0 Diff= 2.07D+00
 Largest Abelian subgroup         C1      NOp   1
 Largest concise Abelian subgroup C1      NOp   1
                         Standard orientation:                         
 ---------------------------------------------------------------------
 Center     Atomic      Atomic             Coordinates (Angstroms)
 Number     Number       Type             X           Y           Z
 ---------------------------------------------------------------------
      1          6           0        0.764457   -0.000003   -0.000003
      2          6           0       -0.764457    0.000003    0.000003
      3          1           0        1.164915    0.715610   -0.731997
      4          1           0        1.164954   -0.991729   -0.253719
      5          1           0        1.164961    0.276154    0.985698
      6          1           0       -1.164963   -0.276153   -0.985697
      7          1           0       -1.164953    0.991729    0.253717
      8          1           0       -1.164917   -0.715606    0.732000
 ---------------------------------------------------------------------
 Rotational constants (GHZ):          79.7561714          19.8968616          19.8967243
 Leave Link  202 at Thu Oct 15 06:18:49 2020, MaxMem=  1073741824 cpu:               0.0 elap:               0.0
 (Enter l301.exe)
 Standard basis: def2SVP (5D, 7F)
 Ernie: Thresh=  0.10000D-02 Tol=  0.10000D-05 Strict=F.
 There are    60 symmetry adapted cartesian basis functions of A   symmetry.
 There are    58 symmetry adapted basis functions of A   symmetry.
    58 basis functions,    92 primitive gaussians,    60 cartesian basis functions
     9 alpha electrons        9 beta electrons
       nuclear repulsion energy        42.0632691710 Hartrees.
 IExCor= 4336 DFT=T Ex+Corr=M062X ExCW=0 ScaHFX=  0.540000
 ScaDFX=  1.000000  1.000000  1.000000  1.000000 ScalE2=  1.000000  1.000000
 IRadAn=      5 IRanWt=     -1 IRanGd=            0 ICorTp=0 IEmpDi=  4
 NAtoms=    8 NActive=    8 NUniq=    8 SFac= 1.00D+00 NAtFMM=   60 NAOKFM=F Big=F
 Integral buffers will be    131072 words long.
 Raffenetti 2 integral format.
 Two-electron integral symmetry is turned on.
 Leave Link  301 at Thu Oct 15 06:18:49 2020, MaxMem=  1073741824 cpu:               0.1 elap:               0.0
 (Enter l302.exe)
 NPDir=0 NMtPBC=     1 NCelOv=     1 NCel=       1 NClECP=     1 NCelD=      1
         NCelK=      1 NCelE2=     1 NClLst=     1 CellRange=     0.0.
 One-electron integrals computed using PRISM.
 One-electron integral symmetry used in STVInt
   1 Symmetry operations used in ECPInt.
 ECPInt:  NShTT=     465 NPrTT=    1529 LenC2=     466 LenP2D=    1445.
 LDataN:  DoStor=T MaxTD1= 4 Len=   56
 NBasis=    58 RedAO= T EigKep=  4.52D-03  NBF=    58
 NBsUse=    58 1.00D-06 EigRej= -1.00D+00 NBFU=    58
 Precomputing XC quadrature grid using
 IXCGrd= 4 IRadAn=           5 IRanWt=          -1 IRanGd=           0 AccXCQ= 0.00D+00.
 Generated NRdTot=       0 NPtTot=           0 NUsed=           0 NTot=          32
 NSgBfM=    60    60    60    60    60 MxSgAt=     8 MxSgA2=     8.
 Leave Link  302 at Thu Oct 15 06:18:49 2020, MaxMem=  1073741824 cpu:               1.1 elap:               0.2
 (Enter l303.exe)
 DipDrv:  MaxL=1.
 Leave Link  303 at Thu Oct 15 06:18:49 2020, MaxMem=  1073741824 cpu:               0.1 elap:               0.0
 (Enter l401.exe)
 Initial guess from the checkpoint file:  "in.chk"
 B after Tr=     0.000000   -0.000000   -0.000000
         Rot=    0.683354    0.294274    0.504842   -0.437681 Ang=  93.79 deg.
 Guess basis will be translated and rotated to current coordinates.
 JPrj=2 DoOrth=T DoCkMO=T.
 Generating alternative initial guess.
 ExpMin= 1.22D-01 ExpMax= 1.24D+03 ExpMxC= 1.86D+02 IAcc=2 IRadAn=         4 AccDes= 0.00D+00
 Harris functional with IExCor= 1009 and IRadAn=       4 diagonalized for initial guess.
 HarFok:  IExCor= 1009 AccDes= 0.00D+00 IRadAn=         4 IDoV= 1 UseB2=F ITyADJ=14
 ICtDFT=  3500011 ScaDFX=  1.000000  1.000000  1.000000  1.000000
 FoFCou: FMM=F IPFlag=           0 FMFlag=      100000 FMFlg1=           0
         NFxFlg=           0 DoJE=T BraDBF=F KetDBF=T FulRan=T
         wScrn=  0.000000 ICntrl=       500 IOpCl=  0 I1Cent=   200000004 NGrid=           0
         NMat0=    1 NMatS0=      1 NMatT0=    0 NMatD0=    1 NMtDS0=    0 NMtDT0=    0
 Petite list used in FoFCou.
 Harris En= -79.7365432085275    
 Leave Link  401 at Thu Oct 15 06:18:49 2020, MaxMem=  1073741824 cpu:               0.8 elap:               0.1
 (Enter l502.exe)
 Keep R1 ints in memory in canonical form, NReq=8542056.
 FoFCou: FMM=F IPFlag=           0 FMFlag=           0 FMFlg1=           0
         NFxFlg=           0 DoJE=F BraDBF=F KetDBF=F FulRan=T
         wScrn=  0.000000 ICntrl=       600 IOpCl=  0 I1Cent=           0 NGrid=           0
         NMat0=    1 NMatS0=   1711 NMatT0=    0 NMatD0=    1 NMtDS0=    0 NMtDT0=    0
 Symmetry not used in FoFCou.
 Two-electron integral symmetry not used.
 Closed shell SCF:
 Using DIIS extrapolation, IDIIS=  1040.
 NGot=  1073741824 LenX=  1072268660 LenY=  1072264619
 Requested convergence on RMS density matrix=1.00D-08 within 128 cycles.
 Requested convergence on MAX density matrix=1.00D-06.
 Requested convergence on             energy=1.00D-06.
 No special actions if energy rises.
 Integral accuracy reduced to 1.0D-05 until final iterations.

 Cycle   1  Pass 0  IDiag  1:
 E= -79.7102755276798    
 DIIS: error= 1.67D-03 at cycle   1 NSaved=   1.
 NSaved= 1 IEnMin= 1 EnMin= -79.7102755276798     IErMin= 1 ErrMin= 1.67D-03
 ErrMax= 1.67D-03  0.00D+00 EMaxC= 1.00D-01 BMatC= 8.34D-05 BMatP= 8.34D-05
 IDIUse=3 WtCom= 9.83D-01 WtEn= 1.67D-02
 Coeff-Com:  0.100D+01
 Coeff-En:   0.100D+01
 Coeff:      0.100D+01
 Gap=     0.738 Goal=   None    Shift=    0.000
 GapD=    0.738 DampG=2.000 DampE=1.000 DampFc=2.0000 IDamp=-1.
 RMSDP=2.18D-04 MaxDP=2.58D-03              OVMax= 3.18D-03

 Cycle   2  Pass 0  IDiag  1:
 E= -79.7103684290431     Delta-E=       -0.000092901363 Rises=F Damp=F
 DIIS: error= 4.35D-04 at cycle   2 NSaved=   2.
 NSaved= 2 IEnMin= 2 EnMin= -79.7103684290431     IErMin= 2 ErrMin= 4.35D-04
 ErrMax= 4.35D-04  0.00D+00 EMaxC= 1.00D-01 BMatC= 6.19D-06 BMatP= 8.34D-05
 IDIUse=3 WtCom= 9.96D-01 WtEn= 4.35D-03
 Coeff-Com:  0.747D-01 0.925D+00
 Coeff-En:   0.000D+00 0.100D+01
 Coeff:      0.744D-01 0.926D+00
 Gap=     0.506 Goal=   None    Shift=    0.000
 RMSDP=6.44D-05 MaxDP=1.09D-03 DE=-9.29D-05 OVMax= 1.11D-03

 Cycle   3  Pass 0  IDiag  1:
 E= -79.7103723390738     Delta-E=       -0.000003910031 Rises=F Damp=F
 DIIS: error= 2.75D-04 at cycle   3 NSaved=   3.
 NSaved= 3 IEnMin= 3 EnMin= -79.7103723390738     IErMin= 3 ErrMin= 2.75D-04
 ErrMax= 2.75D-04  0.00D+00 EMaxC= 1.00D-01 BMatC= 3.00D-06 BMatP= 6.19D-06
 IDIUse=3 WtCom= 9.97D-01 WtEn= 2.75D-03
 Coeff-Com: -0.369D-01 0.407D+00 0.630D+00
 Coeff-En:   0.000D+00 0.250D+00 0.750D+00
 Coeff:     -0.367D-01 0.407D+00 0.630D+00
 Gap=     0.506 Goal=   None    Shift=    0.000
 RMSDP=2.52D-05 MaxDP=3.61D-04 DE=-3.91D-06 OVMax= 4.86D-04

 Cycle   4  Pass 0  IDiag  1:
 E= -79.7103755197091     Delta-E=       -0.000003180635 Rises=F Damp=F
 DIIS: error= 1.30D-05 at cycle   4 NSaved=   4.
 NSaved= 4 IEnMin= 4 EnMin= -79.7103755197091     IErMin= 4 ErrMin= 1.30D-05
 ErrMax= 1.30D-05  0.00D+00 EMaxC= 1.00D-01 BMatC= 4.19D-09 BMatP= 3.00D-06
 IDIUse=1 WtCom= 1.00D+00 WtEn= 0.00D+00
 Coeff-Com:  0.135D-02-0.488D-01-0.393D-01 0.109D+01
 Coeff:      0.135D-02-0.488D-01-0.393D-01 0.109D+01
 Gap=     0.506 Goal=   None    Shift=    0.000
 RMSDP=2.30D-06 MaxDP=2.59D-05 DE=-3.18D-06 OVMax= 3.96D-05

 Initial convergence to 1.0D-05 achieved.  Increase integral accuracy.
 Cycle   5  Pass 1  IDiag  1:
 E= -79.7103803621689     Delta-E=       -0.000004842460 Rises=F Damp=F
 DIIS: error= 1.61D-05 at cycle   1 NSaved=   1.
 NSaved= 1 IEnMin= 1 EnMin= -79.7103803621689     IErMin= 1 ErrMin= 1.61D-05
 ErrMax= 1.61D-05  0.00D+00 EMaxC= 1.00D-01 BMatC= 2.42D-08 BMatP= 2.42D-08
 IDIUse=1 WtCom= 1.00D+00 WtEn= 0.00D+00
 Coeff-Com:  0.100D+01
 Coeff:      0.100D+01
 Gap=     0.506 Goal=   None    Shift=    0.000
 RMSDP=2.30D-06 MaxDP=2.59D-05 DE=-4.84D-06 OVMax= 3.95D-05

 Cycle   6  Pass 1  IDiag  1:
 E= -79.7103803856760     Delta-E=       -0.000000023507 Rises=F Damp=F
 DIIS: error= 3.63D-06 at cycle   2 NSaved=   2.
 NSaved= 2 IEnMin= 2 EnMin= -79.7103803856760     IErMin= 2 ErrMin= 3.63D-06
 ErrMax= 3.63D-06  0.00D+00 EMaxC= 1.00D-01 BMatC= 4.42D-10 BMatP= 2.42D-08
 IDIUse=1 WtCom= 1.00D+00 WtEn= 0.00D+00
 Coeff-Com: -0.366D-01 0.104D+01
 Coeff:     -0.366D-01 0.104D+01
 Gap=     0.506 Goal=   None    Shift=    0.000
 RMSDP=6.11D-07 MaxDP=6.05D-06 DE=-2.35D-08 OVMax= 9.66D-06

 Cycle   7  Pass 1  IDiag  1:
 E= -79.7103803859415     Delta-E=       -0.000000000266 Rises=F Damp=F
 DIIS: error= 2.33D-06 at cycle   3 NSaved=   3.
 NSaved= 3 IEnMin= 3 EnMin= -79.7103803859415     IErMin= 3 ErrMin= 2.33D-06
 ErrMax= 2.33D-06  0.00D+00 EMaxC= 1.00D-01 BMatC= 2.57D-10 BMatP= 4.42D-10
 IDIUse=1 WtCom= 1.00D+00 WtEn= 0.00D+00
 Coeff-Com: -0.327D-01 0.461D+00 0.572D+00
 Coeff:     -0.327D-01 0.461D+00 0.572D+00
 Gap=     0.506 Goal=   None    Shift=    0.000
 RMSDP=2.43D-07 MaxDP=3.96D-06 DE=-2.66D-10 OVMax= 4.07D-06

 Cycle   8  Pass 1  IDiag  1:
 E= -79.7103803862115     Delta-E=       -0.000000000270 Rises=F Damp=F
 DIIS: error= 1.46D-07 at cycle   4 NSaved=   4.
 NSaved= 4 IEnMin= 4 EnMin= -79.7103803862115     IErMin= 4 ErrMin= 1.46D-07
 ErrMax= 1.46D-07  0.00D+00 EMaxC= 1.00D-01 BMatC= 9.63D-13 BMatP= 2.57D-10
 IDIUse=1 WtCom= 1.00D+00 WtEn= 0.00D+00
 Coeff-Com:  0.218D-02-0.484D-01-0.782D-02 0.105D+01
 Coeff:      0.218D-02-0.484D-01-0.782D-02 0.105D+01
 Gap=     0.506 Goal=   None    Shift=    0.000
 RMSDP=4.54D-08 MaxDP=3.15D-07 DE=-2.70D-10 OVMax= 6.87D-07

 Cycle   9  Pass 1  IDiag  1:
 E= -79.7103803862134     Delta-E=       -0.000000000002 Rises=F Damp=F
 DIIS: error= 1.70D-08 at cycle   5 NSaved=   5.
 NSaved= 5 IEnMin= 5 EnMin= -79.7103803862134     IErMin= 5 ErrMin= 1.70D-08
 ErrMax= 1.70D-08  0.00D+00 EMaxC= 1.00D-01 BMatC= 1.70D-14 BMatP= 9.63D-13
 IDIUse=1 WtCom= 1.00D+00 WtEn= 0.00D+00
 Coeff-Com:  0.811D-03-0.117D-01-0.150D-01 0.506D-02 0.102D+01
 Coeff:      0.811D-03-0.117D-01-0.150D-01 0.506D-02 0.102D+01
 Gap=     0.506 Goal=   None    Shift=    0.000
 RMSDP=7.91D-09 MaxDP=6.92D-08 DE=-1.88D-12 OVMax= 1.31D-07

 SCF Done:  E(RM062X) =  -79.7103803862     A.U. after    9 cycles
            NFock=  9  Conv=0.79D-08     -V/T= 2.0138
 KE= 7.862213987959D+01 PE=-2.673996301411D+02 EE= 6.700384070428D+01
 Leave Link  502 at Thu Oct 15 06:18:50 2020, MaxMem=  1073741824 cpu:               7.1 elap:               1.0
 (Enter l701.exe)
 ... and contract with generalized density number  0.
 Compute integral first derivatives.
   1 Symmetry operations used in ECPInt.
 ECPInt:  NShTT=     465 NPrTT=    1529 LenC2=     466 LenP2D=    1445.
 LDataN:  DoStor=T MaxTD1= 5 Len=  102
 Leave Link  701 at Thu Oct 15 06:18:50 2020, MaxMem=  1073741824 cpu:               0.6 elap:               0.1
 (Enter l702.exe)
 L702 exits ... SP integral derivatives will be done elsewhere.
 Leave Link  702 at Thu Oct 15 06:18:50 2020, MaxMem=  1073741824 cpu:               0.1 elap:               0.0
 (Enter l703.exe)
 Integral derivatives from FoFJK, PRISM(SPDF).
 Compute integral first derivatives, UseDBF=F ICtDFT=           0.
 Calling FoFJK, ICntrl=      2127 FMM=F ISym2X=0 I1Cent= 0 IOpClX= 0 NMat=1 NMatS=1 NMatT=0.
 FoFJK:  IHMeth= 1 ICntrl=    2127 DoSepK=F KAlg= 0 I1Cent=           0 FoldK=F
 IRaf=         0 NMat=       1 IRICut=       1 DoRegI=T DoRafI=F ISym2E= 0 IDoP0=0 IntGTp=1.
 FoFCou: FMM=F IPFlag=           0 FMFlag=      100000 FMFlg1=         800
         NFxFlg=           0 DoJE=F BraDBF=F KetDBF=F FulRan=T
         wScrn=  0.000000 ICntrl=      2127 IOpCl=  0 I1Cent=           0 NGrid=           0
         NMat0=    1 NMatS0=      1 NMatT0=    0 NMatD0=    1 NMtDS0=    0 NMtDT0=    0
 Symmetry not used in FoFCou.
 Leave Link  703 at Thu Oct 15 06:18:51 2020, MaxMem=  1073741824 cpu:               2.6 elap:               0.4
 (Enter l716.exe)
 Dipole        =-8.93443568D-08 7.20642820D-07 3.12408409D-07
 ***** Axes restored to original set *****
 -------------------------------------------------------------------
 Center     Atomic                   Forces (Hartrees/Bohr)
 Number     Number              X              Y              Z
 -------------------------------------------------------------------
      1        6           0.002692805   -0.000011189    0.000007713
      2        6          -0.002692222    0.000011312   -0.000006966
      3        1           0.000068829   -0.000024466    0.000014929
      4        1           0.000076481   -0.000001463   -0.000027131
      5        1           0.000075971    0.000031919    0.000008438
      6        1          -0.000076154   -0.000031903   -0.000008755
      7        1          -0.000076725    0.000001423    0.000027090
      8        1          -0.000068986    0.000024366   -0.000015319
 -------------------------------------------------------------------
 Cartesian Forces:  Max     0.002692805 RMS     0.000778292
 Leave Link  716 at Thu Oct 15 06:18:51 2020, MaxMem=  1073741824 cpu:               0.0 elap:               0.0
 (Enter l103.exe)

 GradGradGradGradGradGradGradGradGradGradGradGradGradGradGradGradGradGrad
 Berny optimization.
 Using GEDIIS/GDIIS optimizer.
 FormGI is forming the generalized inverse of G from B-inverse, IUseBI=4.
 Internal  Forces:  Max     0.002914087 RMS     0.000553195
 Search for a local minimum.
 Step number   2 out of a maximum of   38 on scan point     1 out of    10
 All quantities printed in internal units (Hartrees-Bohrs-Radians)
 RMS Force = .56335D-03 SwitMx=.10000D-02 MixMth= 2
 Mixed Optimization -- En-DIIS/RFO-DIIS
 Update second derivatives using D2CorX and points    1    2
 DE= -3.95D-04 DEPred=-4.56D-04 R= 8.67D-01
 TightC=F SS=  1.41D+00  RLast= 6.36D-02 DXNew= 5.0454D-01 1.9068D-01
 Trust test= 8.67D-01 RLast= 6.36D-02 DXMaxT set to 3.00D-01
 ITU=  1  0
 Use linear search instead of GDIIS.
     Eigenvalues ---    0.01962   0.05618   0.05619   0.05619   0.15586
     Eigenvalues ---    0.16000   0.16000   0.16000   0.16000   0.16000
     Eigenvalues ---    0.33081   0.34344   0.34344   0.34345   0.34345
     Eigenvalues ---    0.34345   0.372411000.000001000.000001000.00000
     Eigenvalues --- 1000.000001000.000001000.000001000.000001000.00000
     Eigenvalues --- 1000.000001000.000001000.00000
 RFO step:  Lambda=-1.19589443D-05 EMin= 1.96190785D-02
 Quartic linear search produced a step of -0.10825.
 Iteration  1 RMS(Cart)=  0.00236758 RMS(Int)=  0.00000654
 Iteration  2 RMS(Cart)=  0.00000008 RMS(Int)=  0.00000654
 Iteration  1 RMS(Cart)=  0.00000000 RMS(Int)=  0.00000000
 ITry= 1 IFail=0 DXMaxC= 4.58D-03 DCOld= 1.00D+10 DXMaxT= 3.00D-01 DXLimC= 3.00D+00 Rises=F
 Variable       Old X    -DE/DX   Delta X   Delta X   Delta X     New X
                                 (Linear)    (Quad)   (Total)
    R1        2.88923  -0.00291  -0.00345  -0.00454  -0.00799   2.88124
    R2        2.07722   0.00000  -0.00105   0.00116   0.00011   2.07734
    R3        2.07723  -0.00000  -0.00105   0.00115   0.00010   2.07733
    R4        2.07721   0.00000  -0.00105   0.00116   0.00011   2.07733
    R5        2.07721   0.00000  -0.00105   0.00116   0.00011   2.07733
    R6        2.07723  -0.00000  -0.00105   0.00115   0.00010   2.07733
    R7        2.07722   0.00000  -0.00105   0.00116   0.00011   2.07734
    A1        1.94369  -0.00007  -0.00151   0.00124  -0.00025   1.94344
    A2        1.94373  -0.00008  -0.00151   0.00117  -0.00033   1.94340
    A3        1.94373  -0.00008  -0.00151   0.00117  -0.00033   1.94340
    A4        1.87645   0.00008   0.00159  -0.00128   0.00032   1.87677
    A5        1.87639   0.00008   0.00159  -0.00125   0.00036   1.87674
    A6        1.87642   0.00008   0.00159  -0.00129   0.00031   1.87673
    A7        1.94373  -0.00008  -0.00151   0.00116  -0.00034   1.94340
    A8        1.94373  -0.00008  -0.00151   0.00117  -0.00033   1.94340
    A9        1.94369  -0.00007  -0.00151   0.00124  -0.00026   1.94344
   A10        1.87642   0.00008   0.00159  -0.00129   0.00031   1.87673
   A11        1.87639   0.00008   0.00159  -0.00125   0.00035   1.87674
   A12        1.87644   0.00008   0.00159  -0.00127   0.00032   1.87677
    D1        1.04725  -0.00000  -0.00000  -0.00005  -0.00005   1.04719
    D2       -1.04717   0.00000  -0.00000   0.00001   0.00001  -1.04716
    D3       -3.14159  -0.00000   0.00000  -0.00000  -0.00000  -3.14159
    D4       -1.04718  -0.00000  -0.00000  -0.00006  -0.00006  -1.04723
    D5       -3.14159   0.00000  -0.00000   0.00000  -0.00000  -3.14159
    D6        1.04718  -0.00000   0.00000  -0.00001  -0.00001   1.04717
    D7        3.14159   0.00000  -0.00000   0.00000   0.00000  -3.14159
    D8        1.04718   0.00000   0.00000   0.00006   0.00006   1.04724
    D9       -1.04724   0.00000   0.00000   0.00005   0.00005  -1.04719
         Item               Value     Threshold  Converged?
 Maximum Force            0.002914     0.000450     NO 
 RMS     Force            0.000563     0.000300     NO 
 Maximum Displacement     0.004581     0.001800     NO 
 RMS     Displacement     0.002368     0.001200     NO 
 Predicted change in Energy=-1.168036D-05
 Lowest energy point so far.  Saving SCF results.
 GradGradGradGradGradGradGradGradGradGradGradGradGradGradGradGradGradGrad

 Leave Link  103 at Thu Oct 15 06:18:51 2020, MaxMem=  1073741824 cpu:               0.1 elap:               0.0
 (Enter l202.exe)
                          Input orientation:                          
 ---------------------------------------------------------------------
 Center     Atomic      Atomic             Coordinates (Angstroms)
 Number     Number       Type             X           Y           Z
 ---------------------------------------------------------------------
      1          6           0        1.041115   -0.012930    0.089140
      2          6           0        2.565799   -0.012908    0.089127
      3          1           0        0.640913   -0.828357    0.708279
      4          1           0        0.640929   -0.141379   -0.926615
      5          1           0        0.640926    0.930974    0.485752
      6          1           0        2.965990   -0.956811   -0.307486
      7          1           0        2.965986    0.115540    1.104882
      8          1           0        2.966003    0.802520   -0.530010
 ---------------------------------------------------------------------
                    Distance matrix (angstroms):
                    1          2          3          4          5
     1  C    0.000000
     2  C    1.524684   0.000000
     3  H    1.099280   2.180251   0.000000
     4  H    1.099275   2.180220   1.773363   0.000000
     5  H    1.099275   2.180221   1.773348   1.773336   0.000000
     6  H    2.180221   1.099275   2.540524   2.540503   3.098206
     7  H    2.180220   1.099275   2.540511   3.098205   2.540503
     8  H    2.180252   1.099280   3.098252   2.540514   2.540523
                    6          7          8
     6  H    0.000000
     7  H    1.773335   0.000000
     8  H    1.773348   1.773362   0.000000
 Stoichiometry    C2H6
 Framework group  C1[X(C2H6)]
 Deg. of freedom    18
 Full point group                 C1      NOp   1
 RotChk:  IX=2 Diff= 7.14D-01
 Largest Abelian subgroup         C1      NOp   1
 Largest concise Abelian subgroup C1      NOp   1
                         Standard orientation:                         
 ---------------------------------------------------------------------
 Center     Atomic      Atomic             Coordinates (Angstroms)
 Number     Number       Type             X           Y           Z
 ---------------------------------------------------------------------
      1          6           0        0.762342    0.000001   -0.000003
      2          6           0       -0.762342   -0.000001    0.000002
      3          1           0        1.162560    0.982221   -0.288939
      4          1           0        1.162520   -0.741366   -0.706147
      5          1           0        1.162525   -0.240891    0.995101
      6          1           0       -1.162526    0.240890   -0.995101
      7          1           0       -1.162519    0.741367    0.706146
      8          1           0       -1.162561   -0.982221    0.288941
 ---------------------------------------------------------------------
 Rotational constants (GHZ):          79.7285423          19.9836185          19.9835299
 Leave Link  202 at Thu Oct 15 06:18:51 2020, MaxMem=  1073741824 cpu:               0.0 elap:               0.0
 (Enter l301.exe)
 Standard basis: def2SVP (5D, 7F)
 Ernie: Thresh=  0.10000D-02 Tol=  0.10000D-05 Strict=F.
 There are    60 symmetry adapted cartesian basis functions of A   symmetry.
 There are    58 symmetry adapted basis functions of A   symmetry.
    58 basis functions,    92 primitive gaussians,    60 cartesian basis functions
     9 alpha electrons        9 beta electrons
       nuclear repulsion energy        42.1149490899 Hartrees.
 IExCor= 4336 DFT=T Ex+Corr=M062X ExCW=0 ScaHFX=  0.540000
 ScaDFX=  1.000000  1.000000  1.000000  1.000000 ScalE2=  1.000000  1.000000
 IRadAn=      5 IRanWt=     -1 IRanGd=            0 ICorTp=0 IEmpDi=  4
 NAtoms=    8 NActive=    8 NUniq=    8 SFac= 1.00D+00 NAtFMM=   60 NAOKFM=F Big=F
 Integral buffers will be    131072 words long.
 Raffenetti 2 integral format.
 Two-electron integral symmetry is turned on.
 Leave Link  301 at Thu Oct 15 06:18:51 2020, MaxMem=  1073741824 cpu:               0.1 elap:               0.0
 (Enter l302.exe)
 NPDir=0 NMtPBC=     1 NCelOv=     1 NCel=       1 NClECP=     1 NCelD=      1
         NCelK=      1 NCelE2=     1 NClLst=     1 CellRange=     0.0.
 One-electron integrals computed using PRISM.
 One-electron integral symmetry used in STVInt
   1 Symmetry operations used in ECPInt.
 ECPInt:  NShTT=     465 NPrTT=    1529 LenC2=     466 LenP2D=    1445.
 LDataN:  DoStor=T MaxTD1= 4 Len=   56
 NBasis=    58 RedAO= T EigKep=  4.47D-03  NBF=    58
 NBsUse=    58 1.00D-06 EigRej= -1.00D+00 NBFU=    58
 Precomputing XC quadrature grid using
 IXCGrd= 4 IRadAn=           5 IRanWt=          -1 IRanGd=           0 AccXCQ= 0.00D+00.
 Generated NRdTot=       0 NPtTot=           0 NUsed=           0 NTot=          32
 NSgBfM=    60    60    60    60    60 MxSgAt=     8 MxSgA2=     8.
 Leave Link  302 at Thu Oct 15 06:18:51 2020, MaxMem=  1073741824 cpu:               0.4 elap:               0.1
 (Enter l303.exe)
 DipDrv:  MaxL=1.
 Leave Link  303 at Thu Oct 15 06:18:51 2020, MaxMem=  1073741824 cpu:               0.0 elap:               0.0
 (Enter l401.exe)
 Initial guess from the checkpoint file:  "in.chk"
 B after Tr=     0.000000   -0.000000   -0.000000
         Rot=    0.967584   -0.252551    0.000005    0.000008 Ang= -29.26 deg.
 Guess basis will be translated and rotated to current coordinates.
 JPrj=2 DoOrth=T DoCkMO=T.
 Leave Link  401 at Thu Oct 15 06:18:51 2020, MaxMem=  1073741824 cpu:               0.2 elap:               0.0
 (Enter l502.exe)
 Keep R1 ints in memory in canonical form, NReq=8542056.
 FoFCou: FMM=F IPFlag=           0 FMFlag=           0 FMFlg1=           0
         NFxFlg=           0 DoJE=F BraDBF=F KetDBF=F FulRan=T
         wScrn=  0.000000 ICntrl=       600 IOpCl=  0 I1Cent=           0 NGrid=           0
         NMat0=    1 NMatS0=   1711 NMatT0=    0 NMatD0=    1 NMtDS0=    0 NMtDT0=    0
 Symmetry not used in FoFCou.
 Two-electron integral symmetry not used.
 Closed shell SCF:
 Using DIIS extrapolation, IDIIS=  1040.
 NGot=  1073741824 LenX=  1072268660 LenY=  1072264619
 Requested convergence on RMS density matrix=1.00D-08 within 128 cycles.
 Requested convergence on MAX density matrix=1.00D-06.
 Requested convergence on             energy=1.00D-06.
 No special actions if energy rises.

 Cycle   1  Pass 1  IDiag  1:
 E= -79.7103906327892    
 DIIS: error= 2.96D-04 at cycle   1 NSaved=   1.
 NSaved= 1 IEnMin= 1 EnMin= -79.7103906327892     IErMin= 1 ErrMin= 2.96D-04
 ErrMax= 2.96D-04  0.00D+00 EMaxC= 1.00D-01 BMatC= 1.99D-06 BMatP= 1.99D-06
 IDIUse=3 WtCom= 9.97D-01 WtEn= 2.96D-03
 Coeff-Com:  0.100D+01
 Coeff-En:   0.100D+01
 Coeff:      0.100D+01
 Gap=     0.736 Goal=   None    Shift=    0.000
 RMSDP=3.89D-05 MaxDP=4.40D-04              OVMax= 6.79D-04

 Cycle   2  Pass 1  IDiag  1:
 E= -79.7103937109760     Delta-E=       -0.000003078187 Rises=F Damp=F
 DIIS: error= 6.14D-05 at cycle   2 NSaved=   2.
 NSaved= 2 IEnMin= 2 EnMin= -79.7103937109760     IErMin= 2 ErrMin= 6.14D-05
 ErrMax= 6.14D-05  0.00D+00 EMaxC= 1.00D-01 BMatC= 1.47D-07 BMatP= 1.99D-06
 IDIUse=1 WtCom= 1.00D+00 WtEn= 0.00D+00
 Coeff-Com:  0.577D-01 0.942D+00
 Coeff:      0.577D-01 0.942D+00
 Gap=     0.505 Goal=   None    Shift=    0.000
 RMSDP=8.96D-06 MaxDP=1.19D-04 DE=-3.08D-06 OVMax= 1.85D-04

 Cycle   3  Pass 1  IDiag  1:
 E= -79.7103938262164     Delta-E=       -0.000000115240 Rises=F Damp=F
 DIIS: error= 3.94D-05 at cycle   3 NSaved=   3.
 NSaved= 3 IEnMin= 3 EnMin= -79.7103938262164     IErMin= 3 ErrMin= 3.94D-05
 ErrMax= 3.94D-05  0.00D+00 EMaxC= 1.00D-01 BMatC= 5.85D-08 BMatP= 1.47D-07
 IDIUse=1 WtCom= 1.00D+00 WtEn= 0.00D+00
 Coeff-Com: -0.486D-01 0.373D+00 0.675D+00
 Coeff:     -0.486D-01 0.373D+00 0.675D+00
 Gap=     0.505 Goal=   None    Shift=    0.000
 RMSDP=3.91D-06 MaxDP=5.79D-05 DE=-1.15D-07 OVMax= 7.34D-05

 Cycle   4  Pass 1  IDiag  1:
 E= -79.7103938883053     Delta-E=       -0.000000062089 Rises=F Damp=F
 DIIS: error= 4.67D-06 at cycle   4 NSaved=   4.
 NSaved= 4 IEnMin= 4 EnMin= -79.7103938883053     IErMin= 4 ErrMin= 4.67D-06
 ErrMax= 4.67D-06  0.00D+00 EMaxC= 1.00D-01 BMatC= 8.21D-10 BMatP= 5.85D-08
 IDIUse=1 WtCom= 1.00D+00 WtEn= 0.00D+00
 Coeff-Com: -0.809D-02 0.977D-02 0.119D+00 0.879D+00
 Coeff:     -0.809D-02 0.977D-02 0.119D+00 0.879D+00
 Gap=     0.505 Goal=   None    Shift=    0.000
 RMSDP=6.23D-07 MaxDP=7.60D-06 DE=-6.21D-08 OVMax= 1.05D-05

 Cycle   5  Pass 1  IDiag  1:
 E= -79.7103938892873     Delta-E=       -0.000000000982 Rises=F Damp=F
 DIIS: error= 4.01D-07 at cycle   5 NSaved=   5.
 NSaved= 5 IEnMin= 5 EnMin= -79.7103938892873     IErMin= 5 ErrMin= 4.01D-07
 ErrMax= 4.01D-07  0.00D+00 EMaxC= 1.00D-01 BMatC= 9.70D-12 BMatP= 8.21D-10
 IDIUse=1 WtCom= 1.00D+00 WtEn= 0.00D+00
 Coeff-Com:  0.675D-03-0.104D-01-0.493D-02 0.103D+00 0.911D+00
 Coeff:      0.675D-03-0.104D-01-0.493D-02 0.103D+00 0.911D+00
 Gap=     0.505 Goal=   None    Shift=    0.000
 RMSDP=5.83D-08 MaxDP=4.55D-07 DE=-9.82D-10 OVMax= 9.78D-07

 Cycle   6  Pass 1  IDiag  1:
 E= -79.7103938892972     Delta-E=       -0.000000000010 Rises=F Damp=F
 DIIS: error= 5.27D-08 at cycle   6 NSaved=   6.
 NSaved= 6 IEnMin= 6 EnMin= -79.7103938892972     IErMin= 6 ErrMin= 5.27D-08
 ErrMax= 5.27D-08  0.00D+00 EMaxC= 1.00D-01 BMatC= 3.72D-14 BMatP= 9.70D-12
 IDIUse=1 WtCom= 1.00D+00 WtEn= 0.00D+00
 Coeff-Com: -0.674D-05 0.100D-02-0.608D-03-0.183D-01-0.120D+00 0.114D+01
 Coeff:     -0.674D-05 0.100D-02-0.608D-03-0.183D-01-0.120D+00 0.114D+01
 Gap=     0.505 Goal=   None    Shift=    0.000
 RMSDP=1.40D-08 MaxDP=1.49D-07 DE=-9.98D-12 OVMax= 3.08D-07

 Cycle   7  Pass 1  IDiag  1:
 E= -79.7103938892974     Delta-E=       -0.000000000000 Rises=F Damp=F
 DIIS: error= 4.56D-09 at cycle   7 NSaved=   7.
 NSaved= 7 IEnMin= 7 EnMin= -79.7103938892974     IErMin= 7 ErrMin= 4.56D-09
 ErrMax= 4.56D-09  0.00D+00 EMaxC= 1.00D-01 BMatC= 4.36D-16 BMatP= 3.72D-14
 IDIUse=1 WtCom= 1.00D+00 WtEn= 0.00D+00
 Coeff-Com: -0.134D-05-0.107D-03 0.150D-03 0.268D-02 0.113D-01-0.184D+00
 Coeff-Com:  0.117D+01
 Coeff:     -0.134D-05-0.107D-03 0.150D-03 0.268D-02 0.113D-01-0.184D+00
 Coeff:      0.117D+01
 Gap=     0.505 Goal=   None    Shift=    0.000
 RMSDP=1.23D-09 MaxDP=1.15D-08 DE=-1.42D-13 OVMax= 2.69D-08

 SCF Done:  E(RM062X) =  -79.7103938893     A.U. after    7 cycles
            NFock=  7  Conv=0.12D-08     -V/T= 2.0138
 KE= 7.862873053611D+01 PE=-2.675076412237D+02 EE= 6.705356770842D+01
 Leave Link  502 at Thu Oct 15 06:18:52 2020, MaxMem=  1073741824 cpu:               7.8 elap:               1.0
 (Enter l701.exe)
 ... and contract with generalized density number  0.
 Compute integral first derivatives.
   1 Symmetry operations used in ECPInt.
 ECPInt:  NShTT=     465 NPrTT=    1529 LenC2=     466 LenP2D=    1445.
 LDataN:  DoStor=T MaxTD1= 5 Len=  102
 Leave Link  701 at Thu Oct 15 06:18:52 2020, MaxMem=  1073741824 cpu:               0.4 elap:               0.1
 (Enter l702.exe)
 L702 exits ... SP integral derivatives will be done elsewhere.
 Leave Link  702 at Thu Oct 15 06:18:52 2020, MaxMem=  1073741824 cpu:               0.0 elap:               0.0
 (Enter l703.exe)
 Integral derivatives from FoFJK, PRISM(SPDF).
 Compute integral first derivatives, UseDBF=F ICtDFT=           0.
 Calling FoFJK, ICntrl=      2127 FMM=F ISym2X=0 I1Cent= 0 IOpClX= 0 NMat=1 NMatS=1 NMatT=0.
 FoFJK:  IHMeth= 1 ICntrl=    2127 DoSepK=F KAlg= 0 I1Cent=           0 FoldK=F
 IRaf=         0 NMat=       1 IRICut=       1 DoRegI=T DoRafI=F ISym2E= 0 IDoP0=0 IntGTp=1.
 FoFCou: FMM=F IPFlag=           0 FMFlag=      100000 FMFlg1=         800
         NFxFlg=           0 DoJE=F BraDBF=F KetDBF=F FulRan=T
         wScrn=  0.000000 ICntrl=      2127 IOpCl=  0 I1Cent=           0 NGrid=           0
         NMat0=    1 NMatS0=      1 NMatT0=    0 NMatD0=    1 NMtDS0=    0 NMtDT0=    0
 Symmetry not used in FoFCou.
 Leave Link  703 at Thu Oct 15 06:18:52 2020, MaxMem=  1073741824 cpu:               2.6 elap:               0.3
 (Enter l716.exe)
 Dipole        =-3.49303013D-08 1.50103058D-07 1.85030929D-07
 ***** Axes restored to original set *****
 -------------------------------------------------------------------
 Center     Atomic                   Forces (Hartrees/Bohr)
 Number     Number              X              Y              Z
 -------------------------------------------------------------------
      1        6           0.000671671    0.000004322   -0.000008281
      2        6          -0.000671494   -0.000004306    0.000008504
      3        1          -0.000070339    0.000031786   -0.000023436
      4        1          -0.000077609    0.000002321    0.000037557
      5        1          -0.000073504   -0.000034395   -0.000010085
      6        1           0.000073442    0.000034398    0.000009995
      7        1           0.000077540   -0.000002321   -0.000037563
      8        1           0.000070292   -0.000031804    0.000023310
 -------------------------------------------------------------------
 Cartesian Forces:  Max     0.000671671 RMS     0.000198270
 Leave Link  716 at Thu Oct 15 06:18:52 2020, MaxMem=  1073741824 cpu:               0.0 elap:               0.0
 (Enter l103.exe)

 GradGradGradGradGradGradGradGradGradGradGradGradGradGradGradGradGradGrad
 Berny optimization.
 Using GEDIIS/GDIIS optimizer.
 FormGI is forming the generalized inverse of G from B-inverse, IUseBI=4.
 Internal  Forces:  Max     0.000450220 RMS     0.000100971
 Search for a local minimum.
 Step number   3 out of a maximum of   38 on scan point     1 out of    10
 All quantities printed in internal units (Hartrees-Bohrs-Radians)
 RMS Force = .10282D-03 SwitMx=.10000D-02 MixMth= 2
 Mixed Optimization -- En-DIIS/RFO-DIIS
 Swapping is turned off.
 Update second derivatives using D2CorX and points    1    2    3
 DE= -1.35D-05 DEPred=-1.17D-05 R= 1.16D+00
 TightC=F SS=  1.41D+00  RLast= 8.07D-03 DXNew= 5.0454D-01 2.4225D-02
 Trust test= 1.16D+00 RLast= 8.07D-03 DXMaxT set to 3.00D-01
 ITU=  1  1  0
     Eigenvalues ---    0.01963   0.05621   0.05622   0.05622   0.14872
     Eigenvalues ---    0.16000   0.16000   0.16000   0.16000   0.16001
     Eigenvalues ---    0.31468   0.33915   0.34344   0.34344   0.34345
     Eigenvalues ---    0.34345   0.343481000.000001000.000001000.00000
     Eigenvalues --- 1000.000001000.000001000.000001000.000001000.00000
     Eigenvalues --- 1000.000001000.000001000.00000
 En-DIIS/RFO-DIIS/Sim-DIIS IScMMF=       -3 using points:     3    2
 RFO step:  Lambda=-1.49023659D-06.
 NNeg= 0 NGDIIS= 2 SimSw=  2.50D-03 Rises=F DC= -1.35D-05 SmlDif=  1.00D-05
 NRisDI= 0 DoIntr=F SqrtH=F CThrHd= 10.0 CDAdj=  3.0
 RMS Error=  0.5569871868D-03 NUsed= 2 OKEnD=T EnDIS=F
 InvSVX:  RCond= 1.63D-05 Info=           0 Equed=N FErr=  1.47D-15 BErr=  1.55D-17
 DidBck=F Rises=F RFO-DIIS coefs:    1.18840   -0.18840
 Iteration  1 RMS(Cart)=  0.00035920 RMS(Int)=  0.00000025
 Iteration  2 RMS(Cart)=  0.00000027 RMS(Int)=  0.00000013
 Iteration  1 RMS(Cart)=  0.00000000 RMS(Int)=  0.00000000
 ITry= 1 IFail=0 DXMaxC= 9.27D-04 DCOld= 1.00D+10 DXMaxT= 3.00D-01 DXLimC= 3.00D+00 Rises=F
 Variable       Old X    -DE/DX   Delta X   Delta X   Delta X     New X
                                 (Linear)    (Quad)   (Total)
    R1        2.88124  -0.00045  -0.00151  -0.00035  -0.00185   2.87938
    R2        2.07734  -0.00001   0.00002  -0.00001   0.00001   2.07735
    R3        2.07733  -0.00001   0.00002   0.00001   0.00003   2.07736
    R4        2.07733  -0.00001   0.00002   0.00000   0.00003   2.07736
    R5        2.07733  -0.00001   0.00002   0.00000   0.00003   2.07736
    R6        2.07733  -0.00001   0.00002   0.00001   0.00003   2.07736
    R7        2.07734  -0.00001   0.00002  -0.00001   0.00001   2.07735
    A1        1.94344   0.00008  -0.00005   0.00064   0.00059   1.94403
    A2        1.94340   0.00008  -0.00006   0.00075   0.00068   1.94408
    A3        1.94340   0.00008  -0.00006   0.00070   0.00064   1.94404
    A4        1.87677  -0.00009   0.00006  -0.00076  -0.00070   1.87607
    A5        1.87674  -0.00008   0.00007  -0.00076  -0.00070   1.87605
    A6        1.87673  -0.00009   0.00006  -0.00071  -0.00065   1.87608
    A7        1.94340   0.00008  -0.00006   0.00070   0.00064   1.94404
    A8        1.94340   0.00008  -0.00006   0.00075   0.00068   1.94408
    A9        1.94344   0.00008  -0.00005   0.00064   0.00059   1.94403
   A10        1.87673  -0.00009   0.00006  -0.00071  -0.00065   1.87608
   A11        1.87674  -0.00008   0.00007  -0.00076  -0.00070   1.87605
   A12        1.87677  -0.00009   0.00006  -0.00076  -0.00070   1.87607
    D1        1.04719   0.00000  -0.00001   0.00006   0.00005   1.04725
    D2       -1.04716  -0.00000   0.00000  -0.00002  -0.00002  -1.04718
    D3       -3.14159  -0.00000  -0.00000  -0.00000  -0.00000  -3.14159
    D4       -1.04723   0.00000  -0.00001   0.00008   0.00007  -1.04716
    D5       -3.14159   0.00000  -0.00000   0.00000  -0.00000  -3.14159
    D6        1.04717   0.00000  -0.00000   0.00002   0.00002   1.04718
    D7       -3.14159   0.00000   0.00000   0.00000   0.00000  -3.14159
    D8        1.04724  -0.00000   0.00001  -0.00008  -0.00007   1.04717
    D9       -1.04719  -0.00000   0.00001  -0.00006  -0.00005  -1.04724
         Item               Value     Threshold  Converged?
 Maximum Force            0.000450     0.000450     NO 
 RMS     Force            0.000103     0.000300     YES
 Maximum Displacement     0.000927     0.001800     YES
 RMS     Displacement     0.000359     0.001200     YES
 Predicted change in Energy=-7.451256D-07
 Lowest energy point so far.  Saving SCF results.
 GradGradGradGradGradGradGradGradGradGradGradGradGradGradGradGradGradGrad

 Leave Link  103 at Thu Oct 15 06:18:52 2020, MaxMem=  1073741824 cpu:               0.1 elap:               0.0
 (Enter l202.exe)
                          Input orientation:                          
 ---------------------------------------------------------------------
 Center     Atomic      Atomic             Coordinates (Angstroms)
 Number     Number       Type             X           Y           Z
 ---------------------------------------------------------------------
      1          6           0        1.041606   -0.012919    0.089120
      2          6           0        2.565309   -0.012919    0.089148
      3          1           0        0.640767   -0.828149    0.708116
      4          1           0        0.640739   -0.141360   -0.926384
      5          1           0        0.640760    0.930751    0.485665
      6          1           0        2.966155   -0.956588   -0.307399
      7          1           0        2.966176    0.115521    1.104651
      8          1           0        2.966148    0.802312   -0.529848
 ---------------------------------------------------------------------
                    Distance matrix (angstroms):
                    1          2          3          4          5
     1  C    0.000000
     2  C    1.523703   0.000000
     3  H    1.099285   2.179813   0.000000
     4  H    1.099290   2.179856   1.772927   0.000000
     5  H    1.099289   2.179823   1.772911   1.772936   0.000000
     6  H    2.179823   1.099289   2.540707   2.540727   3.098138
     7  H    2.179856   1.099290   2.540724   3.098184   2.540728
     8  H    2.179813   1.099285   3.098121   2.540725   2.540706
                    6          7          8
     6  H    0.000000
     7  H    1.772936   0.000000
     8  H    1.772911   1.772927   0.000000
 Stoichiometry    C2H6
 Framework group  C1[X(C2H6)]
 Deg. of freedom    18
 Full point group                 C1      NOp   1
 RotChk:  IX=3 Diff= 1.30D+00
 Largest Abelian subgroup         C1      NOp   1
 Largest concise Abelian subgroup C1      NOp   1
                         Standard orientation:                         
 ---------------------------------------------------------------------
 Center     Atomic      Atomic             Coordinates (Angstroms)
 Number     Number       Type             X           Y           Z
 ---------------------------------------------------------------------
      1          6           0        0.761852   -0.000002    0.000001
      2          6           0       -0.761852    0.000002   -0.000001
      3          1           0        1.162680    0.330568   -0.968756
      4          1           0        1.162734   -1.004236    0.198107
      5          1           0        1.162691    0.673716    0.770630
      6          1           0       -1.162691   -0.673716   -0.770629
      7          1           0       -1.162734    1.004236   -0.198108
      8          1           0       -1.162680   -0.330567    0.968756
 ---------------------------------------------------------------------
 Rotational constants (GHZ):          79.7666802          19.9971416          19.9970581
 Leave Link  202 at Thu Oct 15 06:18:52 2020, MaxMem=  1073741824 cpu:               0.0 elap:               0.0
 (Enter l301.exe)
 Standard basis: def2SVP (5D, 7F)
 Ernie: Thresh=  0.10000D-02 Tol=  0.10000D-05 Strict=F.
 There are    60 symmetry adapted cartesian basis functions of A   symmetry.
 There are    58 symmetry adapted basis functions of A   symmetry.
    58 basis functions,    92 primitive gaussians,    60 cartesian basis functions
     9 alpha electrons        9 beta electrons
       nuclear repulsion energy        42.1247538202 Hartrees.
 IExCor= 4336 DFT=T Ex+Corr=M062X ExCW=0 ScaHFX=  0.540000
 ScaDFX=  1.000000  1.000000  1.000000  1.000000 ScalE2=  1.000000  1.000000
 IRadAn=      5 IRanWt=     -1 IRanGd=            0 ICorTp=0 IEmpDi=  4
 NAtoms=    8 NActive=    8 NUniq=    8 SFac= 1.00D+00 NAtFMM=   60 NAOKFM=F Big=F
 Integral buffers will be    131072 words long.
 Raffenetti 2 integral format.
 Two-electron integral symmetry is turned on.
 Leave Link  301 at Thu Oct 15 06:18:52 2020, MaxMem=  1073741824 cpu:               0.1 elap:               0.0
 (Enter l302.exe)
 NPDir=0 NMtPBC=     1 NCelOv=     1 NCel=       1 NClECP=     1 NCelD=      1
         NCelK=      1 NCelE2=     1 NClLst=     1 CellRange=     0.0.
 One-electron integrals computed using PRISM.
 One-electron integral symmetry used in STVInt
   1 Symmetry operations used in ECPInt.
 ECPInt:  NShTT=     465 NPrTT=    1529 LenC2=     466 LenP2D=    1445.
 LDataN:  DoStor=T MaxTD1= 4 Len=   56
 NBasis=    58 RedAO= T EigKep=  4.46D-03  NBF=    58
 NBsUse=    58 1.00D-06 EigRej= -1.00D+00 NBFU=    58
 Precomputing XC quadrature grid using
 IXCGrd= 4 IRadAn=           5 IRanWt=          -1 IRanGd=           0 AccXCQ= 0.00D+00.
 Generated NRdTot=       0 NPtTot=           0 NUsed=           0 NTot=          32
 NSgBfM=    60    60    60    60    60 MxSgAt=     8 MxSgA2=     8.
 Leave Link  302 at Thu Oct 15 06:18:52 2020, MaxMem=  1073741824 cpu:               0.5 elap:               0.1
 (Enter l303.exe)
 DipDrv:  MaxL=1.
 Leave Link  303 at Thu Oct 15 06:18:52 2020, MaxMem=  1073741824 cpu:               0.0 elap:               0.0
 (Enter l401.exe)
 Initial guess from the checkpoint file:  "in.chk"
 B after Tr=     0.000000    0.000000   -0.000000
         Rot=    0.887947    0.459946   -0.000002   -0.000009 Ang=  54.77 deg.
 Guess basis will be translated and rotated to current coordinates.
 JPrj=2 DoOrth=T DoCkMO=T.
 Leave Link  401 at Thu Oct 15 06:18:52 2020, MaxMem=  1073741824 cpu:               0.2 elap:               0.0
 (Enter l502.exe)
 Keep R1 ints in memory in canonical form, NReq=8542056.
 FoFCou: FMM=F IPFlag=           0 FMFlag=           0 FMFlg1=           0
         NFxFlg=           0 DoJE=F BraDBF=F KetDBF=F FulRan=T
         wScrn=  0.000000 ICntrl=       600 IOpCl=  0 I1Cent=           0 NGrid=           0
         NMat0=    1 NMatS0=   1711 NMatT0=    0 NMatD0=    1 NMtDS0=    0 NMtDT0=    0
 Symmetry not used in FoFCou.
 Two-electron integral symmetry not used.
 Closed shell SCF:
 Using DIIS extrapolation, IDIIS=  1040.
 NGot=  1073741824 LenX=  1072268660 LenY=  1072264619
 Requested convergence on RMS density matrix=1.00D-08 within 128 cycles.
 Requested convergence on MAX density matrix=1.00D-06.
 Requested convergence on             energy=1.00D-06.
 No special actions if energy rises.

 Cycle   1  Pass 1  IDiag  1:
 E= -79.7103949859623    
 DIIS: error= 6.01D-05 at cycle   1 NSaved=   1.
 NSaved= 1 IEnMin= 1 EnMin= -79.7103949859623     IErMin= 1 ErrMin= 6.01D-05
 ErrMax= 6.01D-05  0.00D+00 EMaxC= 1.00D-01 BMatC= 1.53D-07 BMatP= 1.53D-07
 IDIUse=1 WtCom= 1.00D+00 WtEn= 0.00D+00
 Coeff-Com:  0.100D+01
 Coeff:      0.100D+01
 Gap=     0.736 Goal=   None    Shift=    0.000
 RMSDP=1.16D-05 MaxDP=1.32D-04              OVMax= 2.28D-04

 Cycle   2  Pass 1  IDiag  1:
 E= -79.7103952420664     Delta-E=       -0.000000256104 Rises=F Damp=F
 DIIS: error= 1.31D-05 at cycle   2 NSaved=   2.
 NSaved= 2 IEnMin= 2 EnMin= -79.7103952420664     IErMin= 2 ErrMin= 1.31D-05
 ErrMax= 1.31D-05  0.00D+00 EMaxC= 1.00D-01 BMatC= 1.09D-08 BMatP= 1.53D-07
 IDIUse=1 WtCom= 1.00D+00 WtEn= 0.00D+00
 Coeff-Com: -0.123D-01 0.101D+01
 Coeff:     -0.123D-01 0.101D+01
 Gap=     0.505 Goal=   None    Shift=    0.000
 RMSDP=2.66D-06 MaxDP=3.38D-05 DE=-2.56D-07 OVMax= 5.50D-05

 Cycle   3  Pass 1  IDiag  1:
 E= -79.7103952507405     Delta-E=       -0.000000008674 Rises=F Damp=F
 DIIS: error= 1.28D-05 at cycle   3 NSaved=   3.
 NSaved= 3 IEnMin= 3 EnMin= -79.7103952507405     IErMin= 3 ErrMin= 1.28D-05
 ErrMax= 1.28D-05  0.00D+00 EMaxC= 1.00D-01 BMatC= 5.60D-09 BMatP= 1.09D-08
 IDIUse=1 WtCom= 1.00D+00 WtEn= 0.00D+00
 Coeff-Com: -0.741D-01 0.442D+00 0.632D+00
 Coeff:     -0.741D-01 0.442D+00 0.632D+00
 Gap=     0.505 Goal=   None    Shift=    0.000
 RMSDP=1.15D-06 MaxDP=1.74D-05 DE=-8.67D-09 OVMax= 2.28D-05

 Cycle   4  Pass 1  IDiag  1:
 E= -79.7103952566919     Delta-E=       -0.000000005951 Rises=F Damp=F
 DIIS: error= 6.90D-07 at cycle   4 NSaved=   4.
 NSaved= 4 IEnMin= 4 EnMin= -79.7103952566919     IErMin= 4 ErrMin= 6.90D-07
[...]
      3        1          -0.000021382    0.000005101    0.000012452
      4        1          -0.000048522   -0.001885619   -0.000634597
      5        1           0.000044403   -0.000017901    0.000018694
      6        1           0.000020918    0.000000064   -0.000013467
      7        1           0.000049665   -0.001667522    0.001083748
      8        1          -0.000043394   -0.000022343   -0.000011734
 -------------------------------------------------------------------
 Cartesian Forces:  Max     0.001940992 RMS     0.000848762
 Leave Link  716 at Thu Oct 15 06:19:35 2020, MaxMem=  1073741824 cpu:               0.0 elap:               0.0
 (Enter l103.exe)

 GradGradGradGradGradGradGradGradGradGradGradGradGradGradGradGradGradGrad
 Berny optimization.
 Using GEDIIS/GDIIS optimizer.
 FormGI is forming the generalized inverse of G from B-inverse, IUseBI=4.
 Internal  Forces:  Max     0.001566408 RMS     0.000461537
 Search for a local minimum.
 Step number   3 out of a maximum of   38 on scan point     6 out of    10
 All quantities printed in internal units (Hartrees-Bohrs-Radians)
 RMS Force = .32475D-04 SwitMx=.10000D-02 MixMth= 2
 Mixed Optimization -- En-DIIS/RFO-DIIS
 Swapping is turned off.
 Update second derivatives using D2CorX and points    1    2    3
 DE= -5.95D-05 DEPred=-5.97D-05 R= 9.96D-01
 TightC=F SS=  1.41D+00  RLast= 1.05D-01 DXNew= 2.0364D+00 3.1361D-01
 Trust test= 9.96D-01 RLast= 1.05D-01 DXMaxT set to 1.21D+00
 ITU=  1  1  0
     Eigenvalues ---    0.01075   0.05472   0.05593   0.05598   0.12262
     Eigenvalues ---    0.16000   0.16000   0.16001   0.16013   0.16472
     Eigenvalues ---    0.32452   0.34345   0.34345   0.34358   0.34484
     Eigenvalues ---    0.34914   0.353421000.000001000.000001000.00000
     Eigenvalues --- 1000.000001000.000001000.000001000.000001000.00000
     Eigenvalues --- 1000.000001000.000001000.00000
 En-DIIS/RFO-DIIS/Sim-DIIS IScMMF=       -3 using points:     3    2
 RFO step:  Lambda=-2.10393108D-07.
 NNeg= 0 NGDIIS= 2 SimSw=  2.50D-03 Rises=F DC= -5.95D-05 SmlDif=  1.00D-05
 NRisDI= 0 DoIntr=F SqrtH=F CThrHd= 10.0 CDAdj=  3.0
 RMS Error=  0.2873210743D-03 NUsed= 2 OKEnD=T EnDIS=F
 InvSVX:  RCond= 1.23D-02 Info=           0 Equed=N FErr=  8.95D-16 BErr=  9.50D-17
 DidBck=F Rises=F RFO-DIIS coefs:    0.99369    0.00631
 Iteration  1 RMS(Cart)=  0.00027674 RMS(Int)=  0.00000036
 Iteration  2 RMS(Cart)=  0.00000006 RMS(Int)=  0.00000035
 Iteration  1 RMS(Cart)=  0.00000036 RMS(Int)=  0.00000055
 ITry= 1 IFail=0 DXMaxC= 6.10D-04 DCOld= 1.00D+10 DXMaxT= 1.21D+00 DXLimC= 3.00D+00 Rises=F
 Variable       Old X    -DE/DX   Delta X   Delta X   Delta X     New X
                                 (Linear)    (Quad)   (Total)
    R1        2.90214   0.00001   0.00000   0.00002   0.00002   2.90217
    R2        2.07513   0.00001  -0.00000   0.00002   0.00002   2.07514
    R3        2.07558   0.00004   0.00000   0.00012   0.00012   2.07570
    R4        2.07650  -0.00002   0.00000  -0.00004  -0.00004   2.07646
    R5        2.07512   0.00001  -0.00000   0.00003   0.00002   2.07514
    R6        2.07557   0.00004   0.00000   0.00012   0.00012   2.07570
    R7        2.07651  -0.00002   0.00000  -0.00005  -0.00004   2.07646
    A1        1.95749  -0.00025   0.00004   0.00010   0.00014   1.95763
    A2        1.95188   0.00005   0.00002   0.00042   0.00044   1.95232
    A3        1.94689   0.00021  -0.00005  -0.00050  -0.00054   1.94635
    A4        1.87937  -0.00054   0.00008  -0.00010  -0.00002   1.87935
    A5        1.86723   0.00001  -0.00001  -0.00018  -0.00019   1.86704
    A6        1.85548   0.00055  -0.00009   0.00025   0.00016   1.85564
    A7        1.95750  -0.00026   0.00004   0.00008   0.00013   1.95763
    A8        1.95187   0.00005   0.00002   0.00043   0.00045   1.95232
    A9        1.94688   0.00021  -0.00005  -0.00048  -0.00053   1.94635
   A10        1.87937  -0.00054   0.00008  -0.00010  -0.00002   1.87935
   A11        1.86723   0.00000  -0.00001  -0.00018  -0.00019   1.86704
   A12        1.85549   0.00054  -0.00009   0.00024   0.00015   1.85564
    D1        0.21263  -0.00012   0.00029   0.00049   0.00078   0.21341
    D2       -1.90082   0.00072   0.00015   0.00024   0.00039  -1.90042
    D3        2.30691  -0.00015   0.00028  -0.00002   0.00026   2.30716
    D4       -1.90082   0.00072   0.00015   0.00024   0.00039  -1.90043
    D5        2.26892   0.00157  -0.00000   0.00000   0.00000   2.26893
    D6        0.19346   0.00070   0.00013  -0.00027  -0.00013   0.19333
    D7        2.30691  -0.00015   0.00028  -0.00002   0.00026   2.30716
    D8        0.19346   0.00070   0.00013  -0.00026  -0.00013   0.19333
    D9       -1.88200  -0.00017   0.00027  -0.00053  -0.00026  -1.88227
         Item               Value     Threshold  Converged?
 Maximum Force            0.000073     0.000450     YES
 RMS     Force            0.000032     0.000300     YES
 Maximum Displacement     0.000610     0.001800     YES
 RMS     Displacement     0.000277     0.001200     YES
 Predicted change in Energy=-1.124003D-07
 Optimization completed.
    -- Stationary point found.
                           ----------------------------
                           !   Optimized Parameters   !
                           ! (Angstroms and Degrees)  !
 --------------------------                            --------------------------
 ! Name  Definition              Value          Derivative Info.                !
 --------------------------------------------------------------------------------
 ! R1    R(1,2)                  1.5357         -DE/DX =    0.0                 !
 ! R2    R(1,3)                  1.0981         -DE/DX =    0.0                 !
 ! R3    R(1,4)                  1.0983         -DE/DX =    0.0                 !
 ! R4    R(1,5)                  1.0988         -DE/DX =    0.0                 !
 ! R5    R(2,6)                  1.0981         -DE/DX =    0.0                 !
 ! R6    R(2,7)                  1.0983         -DE/DX =    0.0                 !
 ! R7    R(2,8)                  1.0988         -DE/DX =    0.0                 !
 ! A1    A(2,1,3)              112.1558         -DE/DX =   -0.0003              !
 ! A2    A(2,1,4)              111.8345         -DE/DX =    0.0001              !
 ! A3    A(2,1,5)              111.5487         -DE/DX =    0.0002              !
 ! A4    A(3,1,4)              107.68           -DE/DX =   -0.0005              !
 ! A5    A(3,1,5)              106.9844         -DE/DX =    0.0                 !
 ! A6    A(4,1,5)              106.3111         -DE/DX =    0.0005              !
 ! A7    A(1,2,6)              112.1565         -DE/DX =   -0.0003              !
 ! A8    A(1,2,7)              111.8339         -DE/DX =    0.0001              !
 ! A9    A(1,2,8)              111.5479         -DE/DX =    0.0002              !
 ! A10   A(6,2,7)              107.68           -DE/DX =   -0.0005              !
 ! A11   A(6,2,8)              106.9845         -DE/DX =    0.0                 !
 ! A12   A(7,2,8)              106.3118         -DE/DX =    0.0005              !
 ! D1    D(3,1,2,6)             12.1827         -DE/DX =   -0.0001              !
 ! D2    D(3,1,2,7)           -108.9088         -DE/DX =    0.0007              !
 ! D3    D(3,1,2,8)            132.176          -DE/DX =   -0.0001              !
 ! D4    D(4,1,2,6)           -108.9088         -DE/DX =    0.0007              !
 ! D5    D(4,1,2,7)            129.9998         -DE/DX =    0.0016              !
 ! D6    D(4,1,2,8)             11.0846         -DE/DX =    0.0007              !
 ! D7    D(5,1,2,6)            132.176          -DE/DX =   -0.0001              !
 ! D8    D(5,1,2,7)             11.0846         -DE/DX =    0.0007              !
 ! D9    D(5,1,2,8)           -107.8307         -DE/DX =   -0.0002              !
 --------------------------------------------------------------------------------
 Lowest energy point so far.  Saving SCF results.
 Iteration  1 RMS(Cart)=  0.01668399 RMS(Int)=  0.02526108
 Iteration  2 RMS(Cart)=  0.00044973 RMS(Int)=  0.02525721
 Iteration  3 RMS(Cart)=  0.00001260 RMS(Int)=  0.02525721
 Iteration  4 RMS(Cart)=  0.00000027 RMS(Int)=  0.02525721
 Iteration  1 RMS(Cart)=  0.00973881 RMS(Int)=  0.01480360
 Iteration  2 RMS(Cart)=  0.00569492 RMS(Int)=  0.01649861
 Iteration  3 RMS(Cart)=  0.00333144 RMS(Int)=  0.01878074
 Iteration  4 RMS(Cart)=  0.00194917 RMS(Int)=  0.02041645
 Iteration  5 RMS(Cart)=  0.00114052 RMS(Int)=  0.02145195
 Iteration  6 RMS(Cart)=  0.00066738 RMS(Int)=  0.02208071
 Iteration  7 RMS(Cart)=  0.00039053 RMS(Int)=  0.02245576
 Iteration  8 RMS(Cart)=  0.00022853 RMS(Int)=  0.02267754
 Iteration  9 RMS(Cart)=  0.00013373 RMS(Int)=  0.02280809
 Iteration 10 RMS(Cart)=  0.00007826 RMS(Int)=  0.02288474
 Iteration 11 RMS(Cart)=  0.00004580 RMS(Int)=  0.02292968
 Iteration 12 RMS(Cart)=  0.00002680 RMS(Int)=  0.02295601
 Iteration 13 RMS(Cart)=  0.00001568 RMS(Int)=  0.02297143
 Iteration 14 RMS(Cart)=  0.00000918 RMS(Int)=  0.02298045
 Iteration 15 RMS(Cart)=  0.00000537 RMS(Int)=  0.02298574
 Iteration 16 RMS(Cart)=  0.00000314 RMS(Int)=  0.02298883
 Iteration 17 RMS(Cart)=  0.00000184 RMS(Int)=  0.02299064
 Iteration 18 RMS(Cart)=  0.00000108 RMS(Int)=  0.02299170
 Iteration 19 RMS(Cart)=  0.00000063 RMS(Int)=  0.02299232
 GradGradGradGradGradGradGradGradGradGradGradGradGradGradGradGradGradGrad

 Leave Link  103 at Thu Oct 15 06:19:35 2020, MaxMem=  1073741824 cpu:               0.2 elap:               0.0
 (Enter l202.exe)
                          Input orientation:                          
 ---------------------------------------------------------------------
 Center     Atomic      Atomic             Coordinates (Angstroms)
 Number     Number       Type             X           Y           Z
 ---------------------------------------------------------------------
      1          6           0        1.035622   -0.045735    0.084322
      2          6           0        2.571294   -0.043501    0.101963
      3          1           0        0.588804   -1.020824    0.319981
      4          1           0        0.635051    0.348430   -0.859800
      5          1           0        0.655278    0.668441    0.827791
      6          1           0        3.018113   -1.046557    0.116489
      7          1           0        2.971862    0.573306    0.918225
      8          1           0        2.951636    0.463089   -0.795901
 ---------------------------------------------------------------------
                    Distance matrix (angstroms):
                    1          2          3          4          5
     1  C    0.000000
     2  C    1.535775   0.000000
     3  H    1.098171   2.221026   0.000000
     4  H    1.098722   2.197188   1.808004   0.000000
     5  H    1.098842   2.169056   1.765193   1.717783   0.000000
     6  H    2.221024   1.098171   2.437952   2.928841   3.005022
     7  H    2.197187   1.098722   2.928841   2.944932   2.320299
     8  H    2.169056   1.098842   3.005023   2.320300   2.819894
                    6          7          8
     6  H    0.000000
     7  H    1.808004   0.000000
     8  H    1.765193   1.717785   0.000000
 Stoichiometry    C2H6
 Framework group  C1[X(C2H6)]
 Deg. of freedom    18
 Full point group                 C1      NOp   1
 RotChk:  IX=1 Diff= 1.16D-02
 Largest Abelian subgroup         C1      NOp   1
 Largest concise Abelian subgroup C1      NOp   1
                         Standard orientation:                         
 ---------------------------------------------------------------------
 Center     Atomic      Atomic             Coordinates (Angstroms)
 Number     Number       Type             X           Y           Z
 ---------------------------------------------------------------------
      1          6           0        0.767864   -0.014201    0.005947
      2          6           0       -0.767865   -0.014201   -0.005947
      3          1           0        1.214253   -1.011153   -0.107211
      4          1           0        1.171833    0.495314    0.891607
      5          1           0        1.145032    0.601044   -0.822710
      6          1           0       -1.214251   -1.011153    0.107214
      7          1           0       -1.171832    0.495310   -0.891609
      8          1           0       -1.145033    0.601046    0.822709
 ---------------------------------------------------------------------
 Rotational constants (GHZ):          80.5006246          19.8001902          19.5725275
 Leave Link  202 at Thu Oct 15 06:19:35 2020, MaxMem=  1073741824 cpu:               0.0 elap:               0.0
 (Enter l301.exe)
 Standard basis: def2SVP (5D, 7F)
 Ernie: Thresh=  0.10000D-02 Tol=  0.10000D-05 Strict=F.
 There are    60 symmetry adapted cartesian basis functions of A   symmetry.
 There are    58 symmetry adapted basis functions of A   symmetry.
    58 basis functions,    92 primitive gaussians,    60 cartesian basis functions
     9 alpha electrons        9 beta electrons
       nuclear repulsion energy        41.9773038118 Hartrees.
 IExCor= 4336 DFT=T Ex+Corr=M062X ExCW=0 ScaHFX=  0.540000
 ScaDFX=  1.000000  1.000000  1.000000  1.000000 ScalE2=  1.000000  1.000000
 IRadAn=      5 IRanWt=     -1 IRanGd=            0 ICorTp=0 IEmpDi=  4
 NAtoms=    8 NActive=    8 NUniq=    8 SFac= 1.00D+00 NAtFMM=   60 NAOKFM=F Big=F
 Integral buffers will be    131072 words long.
 Raffenetti 2 integral format.
 Two-electron integral symmetry is turned on.
 Leave Link  301 at Thu Oct 15 06:19:35 2020, MaxMem=  1073741824 cpu:               0.1 elap:               0.0
 (Enter l302.exe)
 NPDir=0 NMtPBC=     1 NCelOv=     1 NCel=       1 NClECP=     1 NCelD=      1
         NCelK=      1 NCelE2=     1 NClLst=     1 CellRange=     0.0.
 One-electron integrals computed using PRISM.
 One-electron integral symmetry used in STVInt
   1 Symmetry operations used in ECPInt.
 ECPInt:  NShTT=     465 NPrTT=    1529 LenC2=     466 LenP2D=    1441.
 LDataN:  DoStor=T MaxTD1= 4 Len=   56
 NBasis=    58 RedAO= T EigKep=  4.32D-03  NBF=    58
 NBsUse=    58 1.00D-06 EigRej= -1.00D+00 NBFU=    58
 Precomputing XC quadrature grid using
 IXCGrd= 4 IRadAn=           5 IRanWt=          -1 IRanGd=           0 AccXCQ= 0.00D+00.
 Generated NRdTot=       0 NPtTot=           0 NUsed=           0 NTot=          32
 NSgBfM=    60    60    60    60    60 MxSgAt=     8 MxSgA2=     8.
 Leave Link  302 at Thu Oct 15 06:19:35 2020, MaxMem=  1073741824 cpu:               0.4 elap:               0.1
 (Enter l303.exe)
 DipDrv:  MaxL=1.
 Leave Link  303 at Thu Oct 15 06:19:35 2020, MaxMem=  1073741824 cpu:               0.0 elap:               0.0
 (Enter l401.exe)
 Initial guess from the checkpoint file:  "in.chk"
 B after Tr=     0.000000   -0.000000    0.000000
         Rot=    0.999998   -0.000069   -0.001762   -0.000001 Ang=  -0.20 deg.
 Guess basis will be translated and rotated to current coordinates.
 JPrj=2 DoOrth=T DoCkMO=T.
 Generating alternative initial guess.
 ExpMin= 1.22D-01 ExpMax= 1.24D+03 ExpMxC= 1.86D+02 IAcc=2 IRadAn=         4 AccDes= 0.00D+00
 Harris functional with IExCor= 1009 and IRadAn=       4 diagonalized for initial guess.
 HarFok:  IExCor= 1009 AccDes= 0.00D+00 IRadAn=         4 IDoV= 1 UseB2=F ITyADJ=14
 ICtDFT=  3500011 ScaDFX=  1.000000  1.000000  1.000000  1.000000
 FoFCou: FMM=F IPFlag=           0 FMFlag=      100000 FMFlg1=           0
         NFxFlg=           0 DoJE=T BraDBF=F KetDBF=T FulRan=T
         wScrn=  0.000000 ICntrl=       500 IOpCl=  0 I1Cent=   200000004 NGrid=           0
         NMat0=    1 NMatS0=      1 NMatT0=    0 NMatD0=    1 NMtDS0=    0 NMtDT0=    0
 Petite list used in FoFCou.
 Harris En= -79.7311729400465    
 Leave Link  401 at Thu Oct 15 06:19:35 2020, MaxMem=  1073741824 cpu:               0.9 elap:               0.1
 (Enter l502.exe)
 Keep R1 ints in memory in canonical form, NReq=8542056.
 FoFCou: FMM=F IPFlag=           0 FMFlag=           0 FMFlg1=           0
         NFxFlg=           0 DoJE=F BraDBF=F KetDBF=F FulRan=T
         wScrn=  0.000000 ICntrl=       600 IOpCl=  0 I1Cent=           0 NGrid=           0
         NMat0=    1 NMatS0=   1711 NMatT0=    0 NMatD0=    1 NMtDS0=    0 NMtDT0=    0
 Symmetry not used in FoFCou.
 Two-electron integral symmetry not used.
 Closed shell SCF:
 Using DIIS extrapolation, IDIIS=  1040.
 NGot=  1073741824 LenX=  1072268660 LenY=  1072264619
 Requested convergence on RMS density matrix=1.00D-08 within 128 cycles.
 Requested convergence on MAX density matrix=1.00D-06.
 Requested convergence on             energy=1.00D-06.
 No special actions if energy rises.
 Integral accuracy reduced to 1.0D-05 until final iterations.

 Cycle   1  Pass 0  IDiag  1:
 E= -79.7033769150644    
 DIIS: error= 2.43D-03 at cycle   1 NSaved=   1.
 NSaved= 1 IEnMin= 1 EnMin= -79.7033769150644     IErMin= 1 ErrMin= 2.43D-03
 ErrMax= 2.43D-03  0.00D+00 EMaxC= 1.00D-01 BMatC= 5.41D-04 BMatP= 5.41D-04
 IDIUse=3 WtCom= 9.76D-01 WtEn= 2.43D-02
 Coeff-Com:  0.100D+01
 Coeff-En:   0.100D+01
 Coeff:      0.100D+01
 Gap=     0.725 Goal=   None    Shift=    0.000
 GapD=    0.725 DampG=2.000 DampE=1.000 DampFc=2.0000 IDamp=-1.
 RMSDP=5.93D-04 MaxDP=7.55D-03              OVMax= 9.94D-03

 Cycle   2  Pass 0  IDiag  1:
 E= -79.7041997582545     Delta-E=       -0.000822843190 Rises=F Damp=F
 DIIS: error= 5.08D-04 at cycle   2 NSaved=   2.
 NSaved= 2 IEnMin= 2 EnMin= -79.7041997582545     IErMin= 2 ErrMin= 5.08D-04
 ErrMax= 5.08D-04  0.00D+00 EMaxC= 1.00D-01 BMatC= 1.31D-05 BMatP= 5.41D-04
 IDIUse=3 WtCom= 9.95D-01 WtEn= 5.08D-03
 Coeff-Com: -0.139D+00 0.114D+01
 Coeff-En:   0.000D+00 0.100D+01
 Coeff:     -0.139D+00 0.114D+01
 Gap=     0.496 Goal=   None    Shift=    0.000
 RMSDP=1.21D-04 MaxDP=1.53D-03 DE=-8.23D-04 OVMax= 2.65D-03

 Cycle   3  Pass 0  IDiag  1:
 E= -79.7042320313301     Delta-E=       -0.000032273076 Rises=F Damp=F
 DIIS: error= 8.83D-05 at cycle   3 NSaved=   3.
 NSaved= 3 IEnMin= 3 EnMin= -79.7042320313301     IErMin= 3 ErrMin= 8.83D-05
 ErrMax= 8.83D-05  0.00D+00 EMaxC= 1.00D-01 BMatC= 4.21D-07 BMatP= 1.31D-05
 IDIUse=1 WtCom= 1.00D+00 WtEn= 0.00D+00
 Coeff-Com: -0.184D-01 0.506D-01 0.968D+00
 Coeff:     -0.184D-01 0.506D-01 0.968D+00
 Gap=     0.496 Goal=   None    Shift=    0.000
 RMSDP=2.35D-05 MaxDP=1.90D-04 DE=-3.23D-05 OVMax= 3.99D-04

 Cycle   4  Pass 0  IDiag  1:
 E= -79.7042327024390     Delta-E=       -0.000000671109 Rises=F Damp=F
 DIIS: error= 5.05D-05 at cycle   4 NSaved=   4.
 NSaved= 4 IEnMin= 4 EnMin= -79.7042327024390     IErMin= 4 ErrMin= 5.05D-05
 ErrMax= 5.05D-05  0.00D+00 EMaxC= 1.00D-01 BMatC= 1.21D-07 BMatP= 4.21D-07
 IDIUse=1 WtCom= 1.00D+00 WtEn= 0.00D+00
 Coeff-Com:  0.298D-02-0.594D-01 0.355D+00 0.701D+00
 Coeff:      0.298D-02-0.594D-01 0.355D+00 0.701D+00
 Gap=     0.496 Goal=   None    Shift=    0.000
 RMSDP=7.02D-06 MaxDP=8.52D-05 DE=-6.71D-07 OVMax= 1.17D-04

 Initial convergence to 1.0D-05 achieved.  Increase integral accuracy.
 Cycle   5  Pass 1  IDiag  1:
 E= -79.7042424755960     Delta-E=       -0.000009773157 Rises=F Damp=F
 DIIS: error= 1.65D-05 at cycle   1 NSaved=   1.
 NSaved= 1 IEnMin= 1 EnMin= -79.7042424755960     IErMin= 1 ErrMin= 1.65D-05
 ErrMax= 1.65D-05  0.00D+00 EMaxC= 1.00D-01 BMatC= 2.07D-08 BMatP= 2.07D-08
 IDIUse=1 WtCom= 1.00D+00 WtEn= 0.00D+00
 Coeff-Com:  0.100D+01
 Coeff:      0.100D+01
 Gap=     0.496 Goal=   None    Shift=    0.000
 RMSDP=7.02D-06 MaxDP=8.52D-05 DE=-9.77D-06 OVMax= 5.03D-05

 Cycle   6  Pass 1  IDiag  1:
 E= -79.7042424938962     Delta-E=       -0.000000018300 Rises=F Damp=F
 DIIS: error= 1.02D-05 at cycle   2 NSaved=   2.
 NSaved= 2 IEnMin= 2 EnMin= -79.7042424938962     IErMin= 2 ErrMin= 1.02D-05
 ErrMax= 1.02D-05  0.00D+00 EMaxC= 1.00D-01 BMatC= 4.11D-09 BMatP= 2.07D-08
 IDIUse=1 WtCom= 1.00D+00 WtEn= 0.00D+00
 Coeff-Com:  0.242D+00 0.758D+00
 Coeff:      0.242D+00 0.758D+00
 Gap=     0.496 Goal=   None    Shift=    0.000
 RMSDP=1.35D-06 MaxDP=1.94D-05 DE=-1.83D-08 OVMax= 2.38D-05
