 Entering Gaussian System, Link 0=g16
 Input=calc.com
 Output=calc.log
 Copyright (c) 1988,1990,1992,1993,1995,1998,2003,2009,2016,
            Gaussian, Inc.  All Rights Reserved.
  
 This is part of the Gaussian(R) 16 program.  It is based on
 the Gaussian(R) 09 system (copyright 2009, Gaussian, Inc.),
 the Gaussian(R) 03 system (copyright 2003, Gaussian, Inc.),
 the Gaussian(R) 98 system (copyright 1998, Gaussian, Inc.),
 the Gaussian(R) 94 system (copyright 1995, Gaussian, Inc.),
 the Gaussian 92(TM) system (copyright 1992, Gaussian, Inc.),
 the Gaussian 90(TM) system (copyright 1990, Gaussian, Inc.),
 the Gaussian 88(TM) system (copyright 1988, Gaussian, Inc.),
 the Gaussian 86(TM) system (copyright 1986, Carnegie Mellon
 University), and the Gaussian 82(TM) system (copyright 1983,
 Carnegie Mellon University). Gaussian is a federally registered
 trademark of Gaussian, Inc.
  
 This software contains proprietary and confidential information,
 including trade secrets, belonging to Gaussian, Inc.
  
 This software is provided under written license and may be
 used, copied, transmitted, or stored only in accord with that
 written license.
  
 The following legend is applicable only to US Government
 contracts under FAR:
  
                    RESTRICTED RIGHTS LEGEND
  
 Use, reproduction and disclosure by the US Government is
 subject to restrictions as set forth in subparagraphs (a)
 and (c) of the Commercial Computer Software - Restricted
 Rights clause in FAR 52.227-19.
  
 Gaussian, Inc.
 340 Quinnipiac St., Bldg. 40, Wallingford CT 06492
  
  
 ---------------------------------------------------------------
 Warning -- This program may not be used in any manner that
 competes with the business of Gaussian, Inc. or will provide
 assistance to any competitor of Gaussian, Inc.  The licensee
 of this program is prohibited from giving any competitor of
 Gaussian, Inc. access to this program.  By using this program,
 the user acknowledges that Gaussian, Inc. is engaged in the
 business of creating and licensing software in the field of
 computational chemistry and represents and warrants to the
 licensee that it is not a competitor of Gaussian, Inc. and that
 it will not use this program in any manner prohibited above.
 ---------------------------------------------------------------
  

 Cite this work as:
 Gaussian 16, Revision A.03,
 M. J. Frisch, G. W. Trucks, H. B. Schlegel, G. E. Scuseria, 
 M. A. Robb, J. R. Cheeseman, G. Scalmani, V. Barone, 
 G. A. Petersson, H. Nakatsuji, X. Li, M. Caricato, A. V. Marenich, 
 J. Bloino, B. G. Janesko, R. Gomperts, B. Mennucci, H. P. Hratchian, 
 J. V. Ortiz, A. F. Izmaylov, J. L. Sonnenberg, D. Williams-Young, 
 F. Ding, F. Lipparini, F. Egidi, J. Goings, B. Peng, A. Petrone, 
 T. Henderson, D. Ranasinghe, V. G. Zakrzewski, J. Gao, N. Rega, 
 G. Zheng, W. Liang, M. Hada, M. Ehara, K. Toyota, R. Fukuda, 
 J. Hasegawa, M. Ishida, T. Nakajima, Y. Honda, O. Kitao, H. Nakai, 
 T. Vreven, K. Throssell, J. A. Montgomery, Jr., J. E. Peralta, 
 F. Ogliaro, M. J. Bearpark, J. J. Heyd, E. N. Brothers, K. N. Kudin, 
 V. N. Staroverov, T. A. Keith, R. Kobayashi, J. Normand, 
 K. Raghavachari, A. P. Rendell, J. C. Burant, S. S. Iyengar, 
 J. Tomasi, M. Cossi, J. M. Millam, M. Klene, C. Adamo, R. Cammi, 
 J. W. Ochterski, R. L. Martin, K. Morokuma, O. Farkas, 
 J. B. Foresman, and D. J. Fox, Gaussian, Inc., Wallingford CT, 2016.
 
 ******************************************
 Gaussian 16:  EM64L-G16RevA.03 25-Dec-2016
                12-Jun-2019 
 ******************************************
 %chk=in.chk
 %nproc=8
 Will use up to    8 processors via shared memory.
 %mem=8192MB
 ----------------------------------
 #p opt(modredundant) M062X/Def2SVP
 ----------------------------------
 1/18=120,19=15,26=3,38=1/1,3;
 2/9=110,12=2,17=6,18=5,40=1/2;
 3/5=43,7=101,11=2,25=1,30=1,71=1,74=-55/1,2,3;
 4//1;
 5/5=2,38=5/2;
 6/7=2,8=2,9=2,10=2,28=1/1;
 7//1,2,3,16;
 1/18=20,19=15,26=3/3(2);
 2/9=110/2;
 99//99;
 2/9=110/2;
 3/5=43,7=101,11=2,25=1,30=1,71=1,74=-55/1,2,3;
 4/5=5,16=3,69=1/1;
 5/5=2,38=5/2;
 7//1,2,3,16;
 1/18=20,19=15,26=3/3(-5);
 2/9=110/2;
 6/7=2,8=2,9=2,10=2,19=2,28=1/1;
 99/9=1/99;
 Leave Link    1 at Thu Oct 15 06:18:42 2020, MaxMem=  1073741824 cpu:               0.4 elap:               0.1
 (Enter l101.exe)
 ------
 CalcUS
 ------
 Symbolic Z-matrix:
 Charge =  0 Multiplicity = 1
 C                     1.04743  -0.01292   0.08913 
 C                     2.55948  -0.01292   0.08913 
 H                     0.66306  -0.82875   0.70857 
 H                     0.66305  -0.14145  -0.92711 
 H                     0.66306   0.93144   0.48595 
 H                     2.94386  -0.95728  -0.30768 
 H                     2.94386   0.11561   1.10538 
 H                     2.94386   0.80292  -0.5303 
 
 The following ModRedundant input section has been read:
 D       4       1       2       7 S   9 -10.00                                
 
 ITRead=  0  0  0  0  0  0  0  0
 MicOpt= -1 -1 -1 -1 -1 -1 -1 -1
 NAtoms=      8 NQM=        8 NQMF=       0 NMMI=      0 NMMIF=      0
                NMic=       0 NMicF=      0.
                    Isotopes and Nuclear Properties:
 (Nuclear quadrupole moments (NQMom) in fm**2, nuclear magnetic moments (NMagM)
  in nuclear magnetons)

  Atom         1           2           3           4           5           6           7           8
 IAtWgt=          12          12           1           1           1           1           1           1
 AtmWgt=  12.0000000  12.0000000   1.0078250   1.0078250   1.0078250   1.0078250   1.0078250   1.0078250
 NucSpn=           0           0           1           1           1           1           1           1
 AtZEff=  -0.0000000  -0.0000000  -0.0000000  -0.0000000  -0.0000000  -0.0000000  -0.0000000  -0.0000000
 NQMom=    0.0000000   0.0000000   0.0000000   0.0000000   0.0000000   0.0000000   0.0000000   0.0000000
 NMagM=    0.0000000   0.0000000   2.7928460   2.7928460   2.7928460   2.7928460   2.7928460   2.7928460
 AtZNuc=   6.0000000   6.0000000   1.0000000   1.0000000   1.0000000   1.0000000   1.0000000   1.0000000
 Leave Link  101 at Thu Oct 15 06:18:42 2020, MaxMem=  1073741824 cpu:               0.7 elap:               0.1
 (Enter l103.exe)

 GradGradGradGradGradGradGradGradGradGradGradGradGradGradGradGradGradGrad
 Berny optimization.
 Initialization pass.
                           ----------------------------
                           !    Initial Parameters    !
                           ! (Angstroms and Degrees)  !
 --------------------------                            --------------------------
 ! Name  Definition              Value          Derivative Info.                !
 --------------------------------------------------------------------------------
 ! R1    R(1,2)                  1.5121         estimate D2E/DX2                !
 ! R2    R(1,3)                  1.0941         estimate D2E/DX2                !
 ! R3    R(1,4)                  1.0941         estimate D2E/DX2                !
 ! R4    R(1,5)                  1.0941         estimate D2E/DX2                !
 ! R5    R(2,6)                  1.0941         estimate D2E/DX2                !
 ! R6    R(2,7)                  1.0941         estimate D2E/DX2                !
 ! R7    R(2,8)                  1.0941         estimate D2E/DX2                !
 ! A1    A(2,1,3)              110.5678         estimate D2E/DX2                !
 ! A2    A(2,1,4)              110.5685         estimate D2E/DX2                !
 ! A3    A(2,1,5)              110.5679         estimate D2E/DX2                !
 ! A4    A(3,1,4)              108.3526         estimate D2E/DX2                !
 ! A5    A(3,1,5)              108.3522         estimate D2E/DX2                !
 ! A6    A(4,1,5)              108.3527         estimate D2E/DX2                !
 ! A7    A(1,2,6)              110.5684         estimate D2E/DX2                !
 ! A8    A(1,2,7)              110.5683         estimate D2E/DX2                !
 ! A9    A(1,2,8)              110.5683         estimate D2E/DX2                !
 ! A10   A(6,2,7)              108.352          estimate D2E/DX2                !
 ! A11   A(6,2,8)              108.3527         estimate D2E/DX2                !
 ! A12   A(7,2,8)              108.3518         estimate D2E/DX2                !
 ! D1    D(3,1,2,6)             60.0002         estimate D2E/DX2                !
 ! D2    D(3,1,2,7)            -59.9997         estimate D2E/DX2                !
 ! D3    D(3,1,2,8)           -179.9992         estimate D2E/DX2                !
 ! D4    D(4,1,2,6)            -60.0001         estimate D2E/DX2                !
 ! D5    D(4,1,2,7)           -179.9999         Scan                            !
 ! D6    D(4,1,2,8)             60.0005         estimate D2E/DX2                !
 ! D7    D(5,1,2,6)            179.9995         estimate D2E/DX2                !
 ! D8    D(5,1,2,7)             59.9997         estimate D2E/DX2                !
 ! D9    D(5,1,2,8)            -59.9999         estimate D2E/DX2                !
 --------------------------------------------------------------------------------
 Trust Radius=3.00D-01 FncErr=1.00D-07 GrdErr=1.00D-06 EigMax=2.50D+02 EigMin=1.00D-04
 Number of optimizations in scan=  10
 Number of steps in this run=     38 maximum allowed number of steps=    100.
 GradGradGradGradGradGradGradGradGradGradGradGradGradGradGradGradGradGrad

 Leave Link  103 at Thu Oct 15 06:18:42 2020, MaxMem=  1073741824 cpu:               0.2 elap:               0.1
 (Enter l202.exe)
                          Input orientation:                          
 ---------------------------------------------------------------------
 Center     Atomic      Atomic             Coordinates (Angstroms)
 Number     Number       Type             X           Y           Z
 ---------------------------------------------------------------------
      1          6           0        1.047430   -0.012920    0.089130
      2          6           0        2.559480   -0.012920    0.089130
      3          1           0        0.663060   -0.828750    0.708570
      4          1           0        0.663050   -0.141450   -0.927110
      5          1           0        0.663060    0.931440    0.485950
      6          1           0        2.943860   -0.957280   -0.307680
      7          1           0        2.943860    0.115610    1.105380
      8          1           0        2.943860    0.802920   -0.530300
 ---------------------------------------------------------------------
                    Distance matrix (angstroms):
                    1          2          3          4          5
     1  C    0.000000
     2  C    1.512050   0.000000
     3  H    1.094086   2.155387   0.000000
     4  H    1.094080   2.155391   1.774213   0.000000
     5  H    1.094085   2.155386   1.774212   1.774213   0.000000
     6  H    2.155393   1.094085   2.500267   2.500273   3.065805
     7  H    2.155396   1.094090   2.500265   3.065810   2.500264
     8  H    2.155397   1.094092   3.065811   2.500277   2.500266
                    6          7          8
     6  H    0.000000
     7  H    1.774213   0.000000
     8  H    1.774222   1.774216   0.000000
 This structure is nearly, but not quite of a higher symmetry.
 Consider Symm=Loose if the higher symmetry is desired.
 Stoichiometry    C2H6
 Framework group  C1[X(C2H6)]
 Deg. of freedom    18
 Full point group                 C1      NOp   1
 Largest Abelian subgroup         C1      NOp   1
 Largest concise Abelian subgroup C1      NOp   1
                         Standard orientation:                         
 ---------------------------------------------------------------------
 Center     Atomic      Atomic             Coordinates (Angstroms)
 Number     Number       Type             X           Y           Z
 ---------------------------------------------------------------------
      1          6           0        0.080998   -0.227602   -0.716388
      2          6           0       -0.081001    0.227601    0.716386
      3          1           0        0.446570    0.592682   -1.341302
      4          1           0       -0.876071   -0.569308   -1.121687
      5          1           0        0.796059   -1.053320   -0.778839
      6          1           0       -0.796054    1.053325    0.778846
      7          1           0        0.876077    0.569311    1.121684
      8          1           0       -0.446561   -0.592685    1.341312
 ---------------------------------------------------------------------
 Rotational constants (GHZ):          79.6507094          20.4157342          20.4157201
 Leave Link  202 at Thu Oct 15 06:18:42 2020, MaxMem=  1073741824 cpu:               0.2 elap:               0.0
 (Enter l301.exe)
 Standard basis: def2SVP (5D, 7F)
 Ernie: Thresh=  0.10000D-02 Tol=  0.10000D-05 Strict=F.
 There are    60 symmetry adapted cartesian basis functions of A   symmetry.
 There are    58 symmetry adapted basis functions of A   symmetry.
    58 basis functions,    92 primitive gaussians,    60 cartesian basis functions
     9 alpha electrons        9 beta electrons
       nuclear repulsion energy        42.4269202184 Hartrees.
 IExCor= 4336 DFT=T Ex+Corr=M062X ExCW=0 ScaHFX=  0.540000
 ScaDFX=  1.000000  1.000000  1.000000  1.000000 ScalE2=  1.000000  1.000000
 IRadAn=      5 IRanWt=     -1 IRanGd=            0 ICorTp=0 IEmpDi=  4
 NAtoms=    8 NActive=    8 NUniq=    8 SFac= 1.00D+00 NAtFMM=   60 NAOKFM=F Big=F
 Integral buffers will be    131072 words long.
 Raffenetti 2 integral format.
 Two-electron integral symmetry is turned on.
 Leave Link  301 at Thu Oct 15 06:18:43 2020, MaxMem=  1073741824 cpu:               0.3 elap:               0.1
 (Enter l302.exe)
 NPDir=0 NMtPBC=     1 NCelOv=     1 NCel=       1 NClECP=     1 NCelD=      1
         NCelK=      1 NCelE2=     1 NClLst=     1 CellRange=     0.0.
 One-electron integrals computed using PRISM.
 One-electron integral symmetry used in STVInt
   1 Symmetry operations used in ECPInt.
 ECPInt:  NShTT=     465 NPrTT=    1529 LenC2=     466 LenP2D=    1445.
 LDataN:  DoStor=T MaxTD1= 4 Len=   56
 NBasis=    58 RedAO= T EigKep=  4.21D-03  NBF=    58
 NBsUse=    58 1.00D-06 EigRej= -1.00D+00 NBFU=    58
 Precomputing XC quadrature grid using
 IXCGrd= 4 IRadAn=           5 IRanWt=          -1 IRanGd=           0 AccXCQ= 0.00D+00.
 Generated NRdTot=       0 NPtTot=           0 NUsed=           0 NTot=          32
 NSgBfM=    60    60    60    60    60 MxSgAt=     8 MxSgA2=     8.
 Leave Link  302 at Thu Oct 15 06:18:43 2020, MaxMem=  1073741824 cpu:               1.4 elap:               0.3
 (Enter l303.exe)
 DipDrv:  MaxL=1.
 Leave Link  303 at Thu Oct 15 06:18:43 2020, MaxMem=  1073741824 cpu:               0.9 elap:               0.2
 (Enter l401.exe)
 ExpMin= 1.22D-01 ExpMax= 1.24D+03 ExpMxC= 1.86D+02 IAcc=3 IRadAn=         5 AccDes= 0.00D+00
 Harris functional with IExCor= 1009 and IRadAn=       5 diagonalized for initial guess.
 HarFok:  IExCor= 1009 AccDes= 0.00D+00 IRadAn=         5 IDoV= 1 UseB2=F ITyADJ=14
 ICtDFT=  3500011 ScaDFX=  1.000000  1.000000  1.000000  1.000000
 FoFCou: FMM=F IPFlag=           0 FMFlag=      100000 FMFlg1=           0
         NFxFlg=           0 DoJE=T BraDBF=F KetDBF=T FulRan=T
         wScrn=  0.000000 ICntrl=       500 IOpCl=  0 I1Cent=   200000004 NGrid=           0
         NMat0=    1 NMatS0=      1 NMatT0=    0 NMatD0=    1 NMtDS0=    0 NMtDT0=    0
 Petite list used in FoFCou.
 Harris En= -79.7395984774366    
 JPrj=0 DoOrth=F DoCkMO=F.
 Leave Link  401 at Thu Oct 15 06:18:44 2020, MaxMem=  1073741824 cpu:               2.9 elap:               0.5
 (Enter l502.exe)
 Keep R1 ints in memory in canonical form, NReq=8542056.
 FoFCou: FMM=F IPFlag=           0 FMFlag=           0 FMFlg1=           0
         NFxFlg=           0 DoJE=F BraDBF=F KetDBF=F FulRan=T
         wScrn=  0.000000 ICntrl=       600 IOpCl=  0 I1Cent=           0 NGrid=           0
         NMat0=    1 NMatS0=   1711 NMatT0=    0 NMatD0=    1 NMtDS0=    0 NMtDT0=    0
 Symmetry not used in FoFCou.
 Two-electron integral symmetry not used.
 Closed shell SCF:
 Using DIIS extrapolation, IDIIS=  1040.
 NGot=  1073741824 LenX=  1072268660 LenY=  1072264619
 Requested convergence on RMS density matrix=1.00D-08 within 128 cycles.
 Requested convergence on MAX density matrix=1.00D-06.
 Requested convergence on             energy=1.00D-06.
 No special actions if energy rises.
 Integral accuracy reduced to 1.0D-05 until final iterations.

 Cycle   1  Pass 0  IDiag  1:
 E= -79.5929343664244    
 DIIS: error= 4.55D-02 at cycle   1 NSaved=   1.
 NSaved= 1 IEnMin= 1 EnMin= -79.5929343664244     IErMin= 1 ErrMin= 4.55D-02
 ErrMax= 4.55D-02  0.00D+00 EMaxC= 1.00D-01 BMatC= 1.03D-01 BMatP= 1.03D-01
 IDIUse=3 WtCom= 5.45D-01 WtEn= 4.55D-01
 Coeff-Com:  0.100D+01
 Coeff-En:   0.100D+01
 Coeff:      0.100D+01
 Gap=     0.441 Goal=   None    Shift=    0.000
 GapD=    0.441 DampG=2.000 DampE=0.500 DampFc=1.0000 IDamp=-1.
 RMSDP=9.53D-03 MaxDP=1.37D-01              OVMax= 1.52D-01

 Cycle   2  Pass 0  IDiag  1:
 E= -79.6283921262510     Delta-E=       -0.035457759827 Rises=F Damp=F
 DIIS: error= 3.94D-02 at cycle   2 NSaved=   2.
 NSaved= 2 IEnMin= 2 EnMin= -79.6283921262510     IErMin= 2 ErrMin= 3.94D-02
 ErrMax= 3.94D-02  0.00D+00 EMaxC= 1.00D-01 BMatC= 7.56D-02 BMatP= 1.03D-01
 IDIUse=3 WtCom= 6.06D-01 WtEn= 3.94D-01
 Coeff-Com:  0.460D+00 0.540D+00
 Coeff-En:   0.399D+00 0.601D+00
 Coeff:      0.436D+00 0.564D+00
 Gap=     0.539 Goal=   None    Shift=    0.000
 RMSDP=4.47D-03 MaxDP=6.43D-02 DE=-3.55D-02 OVMax= 7.26D-02

 Cycle   3  Pass 0  IDiag  1:
 E= -79.7095543890536     Delta-E=       -0.081162262803 Rises=F Damp=F
 DIIS: error= 3.88D-03 at cycle   3 NSaved=   3.
 NSaved= 3 IEnMin= 3 EnMin= -79.7095543890536     IErMin= 3 ErrMin= 3.88D-03
 ErrMax= 3.88D-03  0.00D+00 EMaxC= 1.00D-01 BMatC= 4.34D-04 BMatP= 7.56D-02
 IDIUse=3 WtCom= 9.61D-01 WtEn= 3.88D-02
 Coeff-Com:  0.287D-01 0.906D-01 0.881D+00
 Coeff-En:   0.000D+00 0.000D+00 0.100D+01
 Coeff:      0.276D-01 0.871D-01 0.885D+00
 Gap=     0.505 Goal=   None    Shift=    0.000
 RMSDP=2.60D-04 MaxDP=3.60D-03 DE=-8.12D-02 OVMax= 5.70D-03

 Cycle   4  Pass 0  IDiag  1:
 E= -79.7099821578325     Delta-E=       -0.000427768779 Rises=F Damp=F
 DIIS: error= 5.68D-04 at cycle   4 NSaved=   4.
 NSaved= 4 IEnMin= 4 EnMin= -79.7099821578325     IErMin= 4 ErrMin= 5.68D-04
 ErrMax= 5.68D-04  0.00D+00 EMaxC= 1.00D-01 BMatC= 4.65D-06 BMatP= 4.34D-04
 IDIUse=3 WtCom= 9.94D-01 WtEn= 5.68D-03
 Coeff-Com: -0.634D-02-0.160D-02 0.125D+00 0.882D+00
 Coeff-En:   0.000D+00 0.000D+00 0.000D+00 0.100D+01
 Coeff:     -0.631D-02-0.160D-02 0.125D+00 0.883D+00
 Gap=     0.505 Goal=   None    Shift=    0.000
 RMSDP=4.27D-05 MaxDP=3.51D-04 DE=-4.28D-04 OVMax= 8.76D-04

 Cycle   5  Pass 0  IDiag  1:
 E= -79.7099867708409     Delta-E=       -0.000004613008 Rises=F Damp=F
 DIIS: error= 2.43D-05 at cycle   5 NSaved=   5.
 NSaved= 5 IEnMin= 5 EnMin= -79.7099867708409     IErMin= 5 ErrMin= 2.43D-05
 ErrMax= 2.43D-05  0.00D+00 EMaxC= 1.00D-01 BMatC= 2.18D-08 BMatP= 4.65D-06
 IDIUse=1 WtCom= 1.00D+00 WtEn= 0.00D+00
 Coeff-Com:  0.499D-03-0.627D-03-0.226D-01-0.769D-01 0.110D+01
 Coeff:      0.499D-03-0.627D-03-0.226D-01-0.769D-01 0.110D+01
 Gap=     0.505 Goal=   None    Shift=    0.000
 RMSDP=6.00D-06 MaxDP=5.43D-05 DE=-4.61D-06 OVMax= 9.00D-05

 Initial convergence to 1.0D-05 achieved.  Increase integral accuracy.
 Cycle   6  Pass 1  IDiag  1:
 E= -79.7099855105617     Delta-E=        0.000001260279 Rises=F Damp=F
 DIIS: error= 1.25D-05 at cycle   1 NSaved=   1.
 NSaved= 1 IEnMin= 1 EnMin= -79.7099855105617     IErMin= 1 ErrMin= 1.25D-05
 ErrMax= 1.25D-05  0.00D+00 EMaxC= 1.00D-01 BMatC= 1.80D-08 BMatP= 1.80D-08
 IDIUse=1 WtCom= 1.00D+00 WtEn= 0.00D+00
 Coeff-Com:  0.100D+01
 Coeff:      0.100D+01
 Gap=     0.505 Goal=   None    Shift=    0.000
 RMSDP=6.00D-06 MaxDP=5.43D-05 DE= 1.26D-06 OVMax= 3.61D-05

 Cycle   7  Pass 1  IDiag  1:
 E= -79.7099855288130     Delta-E=       -0.000000018251 Rises=F Damp=F
 DIIS: error= 2.94D-06 at cycle   2 NSaved=   2.
 NSaved= 2 IEnMin= 2 EnMin= -79.7099855288130     IErMin= 2 ErrMin= 2.94D-06
 ErrMax= 2.94D-06  0.00D+00 EMaxC= 1.00D-01 BMatC= 5.39D-10 BMatP= 1.80D-08
 IDIUse=1 WtCom= 1.00D+00 WtEn= 0.00D+00
 Coeff-Com: -0.947D-02 0.101D+01
 Coeff:     -0.947D-02 0.101D+01
 Gap=     0.505 Goal=   None    Shift=    0.000
 RMSDP=8.24D-07 MaxDP=7.97D-06 DE=-1.83D-08 OVMax= 1.18D-05

 Cycle   8  Pass 1  IDiag  1:
 E= -79.7099855291370     Delta-E=       -0.000000000324 Rises=F Damp=F
 DIIS: error= 2.57D-06 at cycle   3 NSaved=   3.
 NSaved= 3 IEnMin= 3 EnMin= -79.7099855291370     IErMin= 3 ErrMin= 2.57D-06
 ErrMax= 2.57D-06  0.00D+00 EMaxC= 1.00D-01 BMatC= 3.03D-10 BMatP= 5.39D-10
 IDIUse=1 WtCom= 1.00D+00 WtEn= 0.00D+00
 Coeff-Com: -0.339D-01 0.438D+00 0.596D+00
 Coeff:     -0.339D-01 0.438D+00 0.596D+00
 Gap=     0.505 Goal=   None    Shift=    0.000
 RMSDP=2.68D-07 MaxDP=4.26D-06 DE=-3.24D-10 OVMax= 4.47D-06

 Cycle   9  Pass 1  IDiag  1:
 E= -79.7099855294535     Delta-E=       -0.000000000317 Rises=F Damp=F
 DIIS: error= 2.12D-07 at cycle   4 NSaved=   4.
 NSaved= 4 IEnMin= 4 EnMin= -79.7099855294535     IErMin= 4 ErrMin= 2.12D-07
 ErrMax= 2.12D-07  0.00D+00 EMaxC= 1.00D-01 BMatC= 1.68D-12 BMatP= 3.03D-10
 IDIUse=1 WtCom= 1.00D+00 WtEn= 0.00D+00
 Coeff-Com: -0.369D-02 0.139D-01 0.708D-01 0.919D+00
 Coeff:     -0.369D-02 0.139D-01 0.708D-01 0.919D+00
 Gap=     0.505 Goal=   None    Shift=    0.000
 RMSDP=4.06D-08 MaxDP=3.95D-07 DE=-3.17D-10 OVMax= 4.94D-07

 Cycle  10  Pass 1  IDiag  1:
 E= -79.7099855294556     Delta-E=       -0.000000000002 Rises=F Damp=F
 DIIS: error= 1.88D-08 at cycle   5 NSaved=   5.
 NSaved= 5 IEnMin= 5 EnMin= -79.7099855294556     IErMin= 5 ErrMin= 1.88D-08
 ErrMax= 1.88D-08  0.00D+00 EMaxC= 1.00D-01 BMatC= 3.18D-14 BMatP= 1.68D-12
 IDIUse=1 WtCom= 1.00D+00 WtEn= 0.00D+00
 Coeff-Com:  0.104D-02-0.141D-01-0.191D-01 0.360D-02 0.103D+01
 Coeff:      0.104D-02-0.141D-01-0.191D-01 0.360D-02 0.103D+01
 Gap=     0.505 Goal=   None    Shift=    0.000
 RMSDP=1.00D-08 MaxDP=9.23D-08 DE=-2.07D-12 OVMax= 1.29D-07

 Cycle  11  Pass 1  IDiag  1:
 E= -79.7099855294557     Delta-E=       -0.000000000000 Rises=F Damp=F
 DIIS: error= 2.48D-09 at cycle   6 NSaved=   6.
 NSaved= 6 IEnMin= 6 EnMin= -79.7099855294557     IErMin= 6 ErrMin= 2.48D-09
 ErrMax= 2.48D-09  0.00D+00 EMaxC= 1.00D-01 BMatC= 4.34D-16 BMatP= 3.18D-14
 IDIUse=1 WtCom= 1.00D+00 WtEn= 0.00D+00
 Coeff-Com:  0.604D-04-0.235D-03-0.988D-03-0.136D-01-0.759D-02 0.102D+01
 Coeff:      0.604D-04-0.235D-03-0.988D-03-0.136D-01-0.759D-02 0.102D+01
 Gap=     0.505 Goal=   None    Shift=    0.000
 RMSDP=1.22D-09 MaxDP=9.59D-09 DE=-8.53D-14 OVMax= 1.90D-08

 SCF Done:  E(RM062X) =  -79.7099855295     A.U. after   11 cycles
            NFock= 11  Conv=0.12D-08     -V/T= 2.0129
 KE= 7.869338945856D+01 PE=-2.681797879849D+02 EE= 6.734949277843D+01
 Leave Link  502 at Thu Oct 15 06:18:46 2020, MaxMem=  1073741824 cpu:              12.1 elap:               1.9
 (Enter l601.exe)
 Copying SCF densities to generalized density rwf, IOpCl= 0 IROHF=0.

 **********************************************************************

            Population analysis using the SCF density.

 **********************************************************************

 Orbital symmetries:
       Occupied  (A) (A) (A) (A) (A) (A) (A) (A) (A)
       Virtual   (A) (A) (A) (A) (A) (A) (A) (A) (A) (A) (A) (A)
                 (A) (A) (A) (A) (A) (A) (A) (A) (A) (A) (A) (A)
                 (A) (A) (A) (A) (A) (A) (A) (A) (A) (A) (A) (A)
                 (A) (A) (A) (A) (A) (A) (A) (A) (A) (A) (A) (A)
                 (A)
 The electronic state is 1-A.
 Alpha  occ. eigenvalues --  -10.53723 -10.53700  -0.84109  -0.68655  -0.50282
 Alpha  occ. eigenvalues --   -0.50282  -0.42577  -0.39966  -0.39966
 Alpha virt. eigenvalues --    0.10578   0.15756   0.16958   0.16958   0.19972
 Alpha virt. eigenvalues --    0.19972   0.28396   0.46696   0.46696   0.47104
 Alpha virt. eigenvalues --    0.56112   0.56112   0.69467   0.70665   0.74563
 Alpha virt. eigenvalues --    0.74991   0.74992   0.75547   0.75548   0.81979
 Alpha virt. eigenvalues --    1.00724   1.16682   1.16682   1.42879   1.42879
 Alpha virt. eigenvalues --    1.59092   1.59707   1.79849   1.83054   1.83054
 Alpha virt. eigenvalues --    1.83215   1.83215   1.88507   1.88507   1.89124
 Alpha virt. eigenvalues --    2.08237   2.08238   2.25039   2.39833   2.39834
 Alpha virt. eigenvalues --    2.45042   2.59603   2.59603   2.67292   2.87108
 Alpha virt. eigenvalues --    2.96024   2.96024   3.04034   3.04035
          Condensed to atoms (all electrons):
               1          2          3          4          5          6
     1  C    4.573990   0.434879   0.399775   0.399777   0.399776  -0.026659
     2  C    0.434879   4.574001  -0.026661  -0.026661  -0.026660   0.399776
     3  H    0.399775  -0.026661   0.639207  -0.024055  -0.024056  -0.007331
     4  H    0.399777  -0.026661  -0.024055   0.639207  -0.024056  -0.007331
     5  H    0.399776  -0.026660  -0.024056  -0.024056   0.639206   0.007711
     6  H   -0.026659   0.399776  -0.007331  -0.007331   0.007711   0.639205
     7  H   -0.026661   0.399775  -0.007331   0.007711  -0.007331  -0.024056
     8  H   -0.026661   0.399775   0.007711  -0.007331  -0.007331  -0.024056
               7          8
     1  C   -0.026661  -0.026661
     2  C    0.399775   0.399775
     3  H   -0.007331   0.007711
     4  H    0.007711  -0.007331
     5  H   -0.007331  -0.007331
     6  H   -0.024056  -0.024056
     7  H    0.639210  -0.024055
     8  H   -0.024055   0.639206
 Mulliken charges:
               1
     1  C   -0.128215
     2  C   -0.128224
     3  H    0.042740
     4  H    0.042738
     5  H    0.042741
     6  H    0.042741
     7  H    0.042738
     8  H    0.042741
 Sum of Mulliken charges =  -0.00000
 Mulliken charges with hydrogens summed into heavy atoms:
               1
     1  C    0.000003
     2  C   -0.000003
 Electronic spatial extent (au):  <R**2>=            108.3163
 Charge=             -0.0000 electrons
 Dipole moment (field-independent basis, Debye):
    X=              0.0000    Y=              0.0000    Z=             -0.0000  Tot=              0.0000
 Quadrupole moment (field-independent basis, Debye-Ang):
   XX=            -14.7340   YY=            -14.8015   ZZ=            -15.4898
   XY=              0.0275   XZ=              0.0865   YZ=             -0.2432
 Traceless Quadrupole moment (field-independent basis, Debye-Ang):
   XX=              0.2744   YY=              0.2069   ZZ=             -0.4814
   XY=              0.0275   XZ=              0.0865   YZ=             -0.2432
 Octapole moment (field-independent basis, Debye-Ang**2):
  XXX=              0.0000  YYY=              0.0000  ZZZ=             -0.0000  XYY=             -0.0000
  XXY=             -0.0000  XXZ=             -0.0000  XZZ=             -0.0000  YZZ=             -0.0000
  YYZ=              0.0000  XYZ=             -0.0000
 Hexadecapole moment (field-independent basis, Debye-Ang**3):
 XXXX=            -29.9433 YYYY=            -34.8741 ZZZZ=            -85.0187 XXXY=              0.9952
 XXXZ=              3.8599 YYYX=              0.2151 YYYZ=             -8.7824 ZZZX=              3.1182
 ZZZY=             -9.7523 XXYY=             -9.9908 XXZZ=            -18.4350 YYZZ=            -19.2489
 XXYZ=             -2.1689 YYXZ=              0.3900 ZZXY=              1.1305
 N-N= 4.242692021843D+01 E-N=-2.681797879748D+02  KE= 7.869338945856D+01
 No NMR shielding tensors so no spin-rotation constants.
 Leave Link  601 at Thu Oct 15 06:18:47 2020, MaxMem=  1073741824 cpu:               1.9 elap:               0.4
 (Enter l701.exe)
 ... and contract with generalized density number  0.
 Compute integral first derivatives.
   1 Symmetry operations used in ECPInt.
 ECPInt:  NShTT=     465 NPrTT=    1529 LenC2=     466 LenP2D=    1445.
 LDataN:  DoStor=T MaxTD1= 5 Len=  102
 Leave Link  701 at Thu Oct 15 06:18:47 2020, MaxMem=  1073741824 cpu:               1.8 elap:               0.3
 (Enter l702.exe)
 L702 exits ... SP integral derivatives will be done elsewhere.
 Leave Link  702 at Thu Oct 15 06:18:48 2020, MaxMem=  1073741824 cpu:               0.4 elap:               0.1
 (Enter l703.exe)
 Integral derivatives from FoFJK, PRISM(SPDF).
 Compute integral first derivatives, UseDBF=F ICtDFT=           0.
 Calling FoFJK, ICntrl=      2127 FMM=F ISym2X=0 I1Cent= 0 IOpClX= 0 NMat=1 NMatS=1 NMatT=0.
 FoFJK:  IHMeth= 1 ICntrl=    2127 DoSepK=F KAlg= 0 I1Cent=           0 FoldK=F
 IRaf=         0 NMat=       1 IRICut=       1 DoRegI=T DoRafI=F ISym2E= 0 IDoP0=0 IntGTp=1.
 FoFCou: FMM=F IPFlag=           0 FMFlag=      100000 FMFlg1=         800
         NFxFlg=           0 DoJE=F BraDBF=F KetDBF=F FulRan=T
         wScrn=  0.000000 ICntrl=      2127 IOpCl=  0 I1Cent=           0 NGrid=           0
         NMat0=    1 NMatS0=      1 NMatT0=    0 NMatD0=    1 NMtDS0=    0 NMtDT0=    0
 Symmetry not used in FoFCou.
 Leave Link  703 at Thu Oct 15 06:18:48 2020, MaxMem=  1073741824 cpu:               3.1 elap:               0.5
 (Enter l716.exe)
 Dipole        = 1.35553120D-06 5.44282422D-07-2.12634181D-06
 ***** Axes restored to original set *****
 -------------------------------------------------------------------
 Center     Atomic                   Forces (Hartrees/Bohr)
 Number     Number              X              Y              Z
 -------------------------------------------------------------------
      1        6          -0.000046904    0.000003675   -0.000000733
      2        6           0.000051620   -0.000000059    0.000005965
      3        1          -0.003299506   -0.001854180    0.001411618
      4        1          -0.003303648   -0.000291788   -0.002315578
      5        1          -0.003304324    0.002142149    0.000903099
      6        1           0.003303826   -0.002141931   -0.000904139
      7        1           0.003301122    0.000291148    0.002310273
      8        1           0.003297813    0.001850986   -0.001410504
 -------------------------------------------------------------------
 Cartesian Forces:  Max     0.003304324 RMS     0.002020084
 Leave Link  716 at Thu Oct 15 06:18:49 2020, MaxMem=  1073741824 cpu:               0.2 elap:               0.1
 (Enter l103.exe)

 GradGradGradGradGradGradGradGradGradGradGradGradGradGradGradGradGradGrad
 Berny optimization.
 FormGI is forming the generalized inverse of G from B-inverse, IUseBI=4.
 Internal  Forces:  Max     0.009954382 RMS     0.002864255
 Search for a local minimum.
 Step number   1 out of a maximum of   38 on scan point     1 out of    10
 All quantities printed in internal units (Hartrees-Bohrs-Radians)
 RMS Force = .29168D-02 SwitMx=.10000D-02 MixMth= 1
 Mixed Optimization -- RFO/linear search
 Second derivative matrix not updated -- first step.
 ITU=  0
     Eigenvalues ---    0.02015   0.05762   0.05762   0.05762   0.16000
     Eigenvalues ---    0.16000   0.16000   0.16000   0.16000   0.16000
     Eigenvalues ---    0.31145   0.34344   0.34344   0.34345   0.34345
     Eigenvalues ---    0.34345   0.343451000.000001000.000001000.00000
     Eigenvalues --- 1000.000001000.000001000.000001000.000001000.00000
     Eigenvalues --- 1000.000001000.000001000.00000
 RFO step:  Lambda=-9.07429119D-04 EMin= 2.01513895D-02
 Linear search not attempted -- first point.
 Iteration  1 RMS(Cart)=  0.02185989 RMS(Int)=  0.00010173
 Iteration  2 RMS(Cart)=  0.00008614 RMS(Int)=  0.00006230
 Iteration  3 RMS(Cart)=  0.00000000 RMS(Int)=  0.00006230
 Iteration  1 RMS(Cart)=  0.00000000 RMS(Int)=  0.00000000
 ITry= 1 IFail=0 DXMaxC= 4.64D-02 DCOld= 1.00D+10 DXMaxT= 3.00D-01 DXLimC= 3.00D+00 Rises=F
 Variable       Old X    -DE/DX   Delta X   Delta X   Delta X     New X
                                 (Linear)    (Quad)   (Total)
    R1        2.85736   0.00995   0.00000   0.03187   0.03187   2.88923
    R2        2.06752   0.00334   0.00000   0.00970   0.00970   2.07722
    R3        2.06751   0.00335   0.00000   0.00972   0.00972   2.07723
    R4        2.06752   0.00334   0.00000   0.00969   0.00969   2.07721
    R5        2.06752   0.00334   0.00000   0.00969   0.00969   2.07721
    R6        2.06753   0.00334   0.00000   0.00970   0.00970   2.07723
    R7        2.06753   0.00334   0.00000   0.00969   0.00969   2.07722
    A1        1.92977   0.00226   0.00000   0.01401   0.01392   1.94369
    A2        1.92978   0.00226   0.00000   0.01405   0.01395   1.94373
    A3        1.92977   0.00226   0.00000   0.01406   0.01396   1.94373
    A4        1.89111  -0.00235   0.00000  -0.01457  -0.01466   1.87645
    A5        1.89110  -0.00235   0.00000  -0.01462  -0.01471   1.87639
    A6        1.89111  -0.00235   0.00000  -0.01460  -0.01469   1.87642
    A7        1.92978   0.00226   0.00000   0.01405   0.01395   1.94373
    A8        1.92978   0.00226   0.00000   0.01405   0.01395   1.94373
    A9        1.92978   0.00225   0.00000   0.01401   0.01391   1.94369
   A10        1.89110  -0.00235   0.00000  -0.01459  -0.01468   1.87642
   A11        1.89111  -0.00235   0.00000  -0.01463  -0.01472   1.87639
   A12        1.89110  -0.00234   0.00000  -0.01456  -0.01465   1.87644
    D1        1.04720   0.00000   0.00000   0.00004   0.00005   1.04725
    D2       -1.04719   0.00000   0.00000   0.00002   0.00002  -1.04717
    D3       -3.14158  -0.00000   0.00000  -0.00001  -0.00001  -3.14159
    D4       -1.04720   0.00000   0.00000   0.00002   0.00002  -1.04718
    D5       -3.14159   0.00000   0.00000   0.00000   0.00000  -3.14159
    D6        1.04721  -0.00000   0.00000  -0.00003  -0.00003   1.04718
    D7        3.14158   0.00000   0.00000   0.00001   0.00001   3.14159
    D8        1.04719  -0.00000   0.00000  -0.00001  -0.00002   1.04718
    D9       -1.04720  -0.00000   0.00000  -0.00005  -0.00005  -1.04724
         Item               Value     Threshold  Converged?
 Maximum Force            0.009954     0.000450     NO 
 RMS     Force            0.002917     0.000300     NO 
 Maximum Displacement     0.046405     0.001800     NO 
 RMS     Displacement     0.021895     0.001200     NO 
 Predicted change in Energy=-4.555387D-04
 Lowest energy point so far.  Saving SCF results.
 GradGradGradGradGradGradGradGradGradGradGradGradGradGradGradGradGradGrad

 Leave Link  103 at Thu Oct 15 06:18:49 2020, MaxMem=  1073741824 cpu:               0.7 elap:               0.1
 (Enter l202.exe)
                          Input orientation:                          
 ---------------------------------------------------------------------
 Center     Atomic      Atomic             Coordinates (Angstroms)
 Number     Number       Type             X           Y           Z
 ---------------------------------------------------------------------
      1          6           0        1.039000   -0.012914    0.089124
      2          6           0        2.567914   -0.012924    0.089141
      3          1           0        0.638530   -0.828197    0.708172
      4          1           0        0.638508   -0.141354   -0.926453
      5          1           0        0.638503    0.930808    0.485690
      6          1           0        2.968414   -0.956645   -0.307423
      7          1           0        2.968405    0.115515    1.104720
      8          1           0        2.968386    0.802362   -0.529902
 ---------------------------------------------------------------------
                    Distance matrix (angstroms):
                    1          2          3          4          5
     1  C    0.000000
     2  C    1.528914   0.000000
     3  H    1.099220   2.184123   0.000000
     4  H    1.099222   2.184155   1.773064   0.000000
     5  H    1.099215   2.184149   1.773019   1.773043   0.000000
     6  H    2.184151   1.099215   2.544856   2.544869   3.101611
     7  H    2.184155   1.099222   2.544830   3.101623   2.544866
     8  H    2.184125   1.099219   3.101577   2.544835   2.544854
                    6          7          8
     6  H    0.000000
     7  H    1.773041   0.000000
     8  H    1.773021   1.773061   0.000000
 Stoichiometry    C2H6
 Framework group  C1[X(C2H6)]
 Deg. of freedom    18
 Full point group                 C1      NOp   1
 RotChk:  IX=0 Diff= 2.07D+00
 Largest Abelian subgroup         C1      NOp   1
 Largest concise Abelian subgroup C1      NOp   1
                         Standard orientation:                         
 ---------------------------------------------------------------------
 Center     Atomic      Atomic             Coordinates (Angstroms)
 Number     Number       Type             X           Y           Z
 ---------------------------------------------------------------------
      1          6           0        0.764457   -0.000003   -0.000003
      2          6           0       -0.764457    0.000003    0.000003
      3          1           0        1.164915    0.715610   -0.731997
      4          1           0        1.164954   -0.991729   -0.253719
      5          1           0        1.164961    0.276154    0.985698
      6          1           0       -1.164963   -0.276153   -0.985697
      7          1           0       -1.164953    0.991729    0.253717
      8          1           0       -1.164917   -0.715606    0.732000
 ---------------------------------------------------------------------
 Rotational constants (GHZ):          79.7561714          19.8968616          19.8967243
 Leave Link  202 at Thu Oct 15 06:18:49 2020, MaxMem=  1073741824 cpu:               0.0 elap:               0.0
 (Enter l301.exe)
 Standard basis: def2SVP (5D, 7F)
 Ernie: Thresh=  0.10000D-02 Tol=  0.10000D-05 Strict=F.
 There are    60 symmetry adapted cartesian basis functions of A   symmetry.
 There are    58 symmetry adapted basis functions of A   symmetry.
    58 basis functions,    92 primitive gaussians,    60 cartesian basis functions
     9 alpha electrons        9 beta electrons
       nuclear repulsion energy        42.0632691710 Hartrees.
 IExCor= 4336 DFT=T Ex+Corr=M062X ExCW=0 ScaHFX=  0.540000
 ScaDFX=  1.000000  1.000000  1.000000  1.000000 ScalE2=  1.000000  1.000000
 IRadAn=      5 IRanWt=     -1 IRanGd=            0 ICorTp=0 IEmpDi=  4
 NAtoms=    8 NActive=    8 NUniq=    8 SFac= 1.00D+00 NAtFMM=   60 NAOKFM=F Big=F
 Integral buffers will be    131072 words long.
 Raffenetti 2 integral format.
 Two-electron integral symmetry is turned on.
 Leave Link  301 at Thu Oct 15 06:18:49 2020, MaxMem=  1073741824 cpu:               0.1 elap:               0.0
 (Enter l302.exe)
 NPDir=0 NMtPBC=     1 NCelOv=     1 NCel=       1 NClECP=     1 NCelD=      1
         NCelK=      1 NCelE2=     1 NClLst=     1 CellRange=     0.0.
 One-electron integrals computed using PRISM.
 One-electron integral symmetry used in STVInt
   1 Symmetry operations used in ECPInt.
 ECPInt:  NShTT=     465 NPrTT=    1529 LenC2=     466 LenP2D=    1445.
 LDataN:  DoStor=T MaxTD1= 4 Len=   56
 NBasis=    58 RedAO= T EigKep=  4.52D-03  NBF=    58
 NBsUse=    58 1.00D-06 EigRej= -1.00D+00 NBFU=    58
 Precomputing XC quadrature grid using
 IXCGrd= 4 IRadAn=           5 IRanWt=          -1 IRanGd=           0 AccXCQ= 0.00D+00.
 Generated NRdTot=       0 NPtTot=           0 NUsed=           0 NTot=          32
 NSgBfM=    60    60    60    60    60 MxSgAt=     8 MxSgA2=     8.
 Leave Link  302 at Thu Oct 15 06:18:49 2020, MaxMem=  1073741824 cpu:               1.1 elap:               0.2
 (Enter l303.exe)
 DipDrv:  MaxL=1.
 Leave Link  303 at Thu Oct 15 06:18:49 2020, MaxMem=  1073741824 cpu:               0.1 elap:               0.0
 (Enter l401.exe)
 Initial guess from the checkpoint file:  "in.chk"
 B after Tr=     0.000000   -0.000000   -0.000000
         Rot=    0.683354    0.294274    0.504842   -0.437681 Ang=  93.79 deg.
 Guess basis will be translated and rotated to current coordinates.
 JPrj=2 DoOrth=T DoCkMO=T.
 Generating alternative initial guess.
 ExpMin= 1.22D-01 ExpMax= 1.24D+03 ExpMxC= 1.86D+02 IAcc=2 IRadAn=         4 AccDes= 0.00D+00
 Harris functional with IExCor= 1009 and IRadAn=       4 diagonalized for initial guess.
 HarFok:  IExCor= 1009 AccDes= 0.00D+00 IRadAn=         4 IDoV= 1 UseB2=F ITyADJ=14
 ICtDFT=  3500011 ScaDFX=  1.000000  1.000000  1.000000  1.000000
 FoFCou: FMM=F IPFlag=           0 FMFlag=      100000 FMFlg1=           0
         NFxFlg=           0 DoJE=T BraDBF=F KetDBF=T FulRan=T
         wScrn=  0.000000 ICntrl=       500 IOpCl=  0 I1Cent=   200000004 NGrid=           0
         NMat0=    1 NMatS0=      1 NMatT0=    0 NMatD0=    1 NMtDS0=    0 NMtDT0=    0
 Petite list used in FoFCou.
 Harris En= -79.7365432085275    
 Leave Link  401 at Thu Oct 15 06:18:49 2020, MaxMem=  1073741824 cpu:               0.8 elap:               0.1
 (Enter l502.exe)
 Keep R1 ints in memory in canonical form, NReq=8542056.
 FoFCou: FMM=F IPFlag=           0 FMFlag=           0 FMFlg1=           0
         NFxFlg=           0 DoJE=F BraDBF=F KetDBF=F FulRan=T
         wScrn=  0.000000 ICntrl=       600 IOpCl=  0 I1Cent=           0 NGrid=           0
         NMat0=    1 NMatS0=   1711 NMatT0=    0 NMatD0=    1 NMtDS0=    0 NMtDT0=    0
 Symmetry not used in FoFCou.
 Two-electron integral symmetry not used.
 Closed shell SCF:
 Using DIIS extrapolation, IDIIS=  1040.
 NGot=  1073741824 LenX=  1072268660 LenY=  1072264619
 Requested convergence on RMS density matrix=1.00D-08 within 128 cycles.
 Requested convergence on MAX density matrix=1.00D-06.
 Requested convergence on             energy=1.00D-06.
 No special actions if energy rises.
 Integral accuracy reduced to 1.0D-05 until final iterations.

 Cycle   1  Pass 0  IDiag  1:
 E= -79.7102755276798    
 DIIS: error= 1.67D-03 at cycle   1 NSaved=   1.
 NSaved= 1 IEnMin= 1 EnMin= -79.7102755276798     IErMin= 1 ErrMin= 1.67D-03
 ErrMax= 1.67D-03  0.00D+00 EMaxC= 1.00D-01 BMatC= 8.34D-05 BMatP= 8.34D-05
 IDIUse=3 WtCom= 9.83D-01 WtEn= 1.67D-02
 Coeff-Com:  0.100D+01
 Coeff-En:   0.100D+01
 Coeff:      0.100D+01
 Gap=     0.738 Goal=   None    Shift=    0.000
 GapD=    0.738 DampG=2.000 DampE=1.000 DampFc=2.0000 IDamp=-1.
 RMSDP=2.18D-04 MaxDP=2.58D-03              OVMax= 3.18D-03

 Cycle   2  Pass 0  IDiag  1:
 E= -79.7103684290431     Delta-E=       -0.000092901363 Rises=F Damp=F
 DIIS: error= 4.35D-04 at cycle   2 NSaved=   2.
 NSaved= 2 IEnMin= 2 EnMin= -79.7103684290431     IErMin= 2 ErrMin= 4.35D-04
 ErrMax= 4.35D-04  0.00D+00 EMaxC= 1.00D-01 BMatC= 6.19D-06 BMatP= 8.34D-05
 IDIUse=3 WtCom= 9.96D-01 WtEn= 4.35D-03
 Coeff-Com:  0.747D-01 0.925D+00
 Coeff-En:   0.000D+00 0.100D+01
 Coeff:      0.744D-01 0.926D+00
 Gap=     0.506 Goal=   None    Shift=    0.000
 RMSDP=6.44D-05 MaxDP=1.09D-03 DE=-9.29D-05 OVMax= 1.11D-03

 Cycle   3  Pass 0  IDiag  1:
 E= -79.7103723390738     Delta-E=       -0.000003910031 Rises=F Damp=F
 DIIS: error= 2.75D-04 at cycle   3 NSaved=   3.
 NSaved= 3 IEnMin= 3 EnMin= -79.7103723390738     IErMin= 3 ErrMin= 2.75D-04
 ErrMax= 2.75D-04  0.00D+00 EMaxC= 1.00D-01 BMatC= 3.00D-06 BMatP= 6.19D-06
 IDIUse=3 WtCom= 9.97D-01 WtEn= 2.75D-03
 Coeff-Com: -0.369D-01 0.407D+00 0.630D+00
 Coeff-En:   0.000D+00 0.250D+00 0.750D+00
 Coeff:     -0.367D-01 0.407D+00 0.630D+00
 Gap=     0.506 Goal=   None    Shift=    0.000
 RMSDP=2.52D-05 MaxDP=3.61D-04 DE=-3.91D-06 OVMax= 4.86D-04

 Cycle   4  Pass 0  IDiag  1:
 E= -79.7103755197091     Delta-E=       -0.000003180635 Rises=F Damp=F
 DIIS: error= 1.30D-05 at cycle   4 NSaved=   4.
 NSaved= 4 IEnMin= 4 EnMin= -79.7103755197091     IErMin= 4 ErrMin= 1.30D-05
 ErrMax= 1.30D-05  0.00D+00 EMaxC= 1.00D-01 BMatC= 4.19D-09 BMatP= 3.00D-06
 IDIUse=1 WtCom= 1.00D+00 WtEn= 0.00D+00
 Coeff-Com:  0.135D-02-0.488D-01-0.393D-01 0.109D+01
 Coeff:      0.135D-02-0.488D-01-0.393D-01 0.109D+01
 Gap=     0.506 Goal=   None    Shift=    0.000
 RMSDP=2.30D-06 MaxDP=2.59D-05 DE=-3.18D-06 OVMax= 3.96D-05

 Initial convergence to 1.0D-05 achieved.  Increase integral accuracy.
 Cycle   5  Pass 1  IDiag  1:
 E= -79.7103803621689     Delta-E=       -0.000004842460 Rises=F Damp=F
 DIIS: error= 1.61D-05 at cycle   1 NSaved=   1.
 NSaved= 1 IEnMin= 1 EnMin= -79.7103803621689     IErMin= 1 ErrMin= 1.61D-05
 ErrMax= 1.61D-05  0.00D+00 EMaxC= 1.00D-01 BMatC= 2.42D-08 BMatP= 2.42D-08
 IDIUse=1 WtCom= 1.00D+00 WtEn= 0.00D+00
 Coeff-Com:  0.100D+01
 Coeff:      0.100D+01
 Gap=     0.506 Goal=   None    Shift=    0.000
 RMSDP=2.30D-06 MaxDP=2.59D-05 DE=-4.84D-06 OVMax= 3.95D-05

 Cycle   6  Pass 1  IDiag  1:
 E= -79.7103803856760     Delta-E=       -0.000000023507 Rises=F Damp=F
 DIIS: error= 3.63D-06 at cycle   2 NSaved=   2.
 NSaved= 2 IEnMin= 2 EnMin= -79.7103803856760     IErMin= 2 ErrMin= 3.63D-06
 ErrMax= 3.63D-06  0.00D+00 EMaxC= 1.00D-01 BMatC= 4.42D-10 BMatP= 2.42D-08
 IDIUse=1 WtCom= 1.00D+00 WtEn= 0.00D+00
 Coeff-Com: -0.366D-01 0.104D+01
 Coeff:     -0.366D-01 0.104D+01
 Gap=     0.506 Goal=   None    Shift=    0.000
 RMSDP=6.11D-07 MaxDP=6.05D-06 DE=-2.35D-08 OVMax= 9.66D-06

 Cycle   7  Pass 1  IDiag  1:
 E= -79.7103803859415     Delta-E=       -0.000000000266 Rises=F Damp=F
 DIIS: error= 2.33D-06 at cycle   3 NSaved=   3.
 NSaved= 3 IEnMin= 3 EnMin= -79.7103803859415     IErMin= 3 ErrMin= 2.33D-06
 ErrMax= 2.33D-06  0.00D+00 EMaxC= 1.00D-01 BMatC= 2.57D-10 BMatP= 4.42D-10
 IDIUse=1 WtCom= 1.00D+00 WtEn= 0.00D+00
 Coeff-Com: -0.327D-01 0.461D+00 0.572D+00
 Coeff:     -0.327D-01 0.461D+00 0.572D+00
 Gap=     0.506 Goal=   None    Shift=    0.000
 RMSDP=2.43D-07 MaxDP=3.96D-06 DE=-2.66D-10 OVMax= 4.07D-06

 Cycle   8  Pass 1  IDiag  1:
 E= -79.7103803862115     Delta-E=       -0.000000000270 Rises=F Damp=F
 DIIS: error= 1.46D-07 at cycle   4 NSaved=   4.
 NSaved= 4 IEnMin= 4 EnMin= -79.7103803862115     IErMin= 4 ErrMin= 1.46D-07
 ErrMax= 1.46D-07  0.00D+00 EMaxC= 1.00D-01 BMatC= 9.63D-13 BMatP= 2.57D-10
 IDIUse=1 WtCom= 1.00D+00 WtEn= 0.00D+00
 Coeff-Com:  0.218D-02-0.484D-01-0.782D-02 0.105D+01
 Coeff:      0.218D-02-0.484D-01-0.782D-02 0.105D+01
 Gap=     0.506 Goal=   None    Shift=    0.000
 RMSDP=4.54D-08 MaxDP=3.15D-07 DE=-2.70D-10 OVMax= 6.87D-07

 Cycle   9  Pass 1  IDiag  1:
 E= -79.7103803862134     Delta-E=       -0.000000000002 Rises=F Damp=F
 DIIS: error= 1.70D-08 at cycle   5 NSaved=   5.
 NSaved= 5 IEnMin= 5 EnMin= -79.7103803862134     IErMin= 5 ErrMin= 1.70D-08
 ErrMax= 1.70D-08  0.00D+00 EMaxC= 1.00D-01 BMatC= 1.70D-14 BMatP= 9.63D-13
 IDIUse=1 WtCom= 1.00D+00 WtEn= 0.00D+00
 Coeff-Com:  0.811D-03-0.117D-01-0.150D-01 0.506D-02 0.102D+01
 Coeff:      0.811D-03-0.117D-01-0.150D-01 0.506D-02 0.102D+01
 Gap=     0.506 Goal=   None    Shift=    0.000
 RMSDP=7.91D-09 MaxDP=6.92D-08 DE=-1.88D-12 OVMax= 1.31D-07

 SCF Done:  E(RM062X) =  -79.7103803862     A.U. after    9 cycles
            NFock=  9  Conv=0.79D-08     -V/T= 2.0138
 KE= 7.862213987959D+01 PE=-2.673996301411D+02 EE= 6.700384070428D+01
 Leave Link  502 at Thu Oct 15 06:18:50 2020, MaxMem=  1073741824 cpu:               7.1 elap:               1.0
 (Enter l701.exe)
 ... and contract with generalized density number  0.
 Compute integral first derivatives.
   1 Symmetry operations used in ECPInt.
 ECPInt:  NShTT=     465 NPrTT=    1529 LenC2=     466 LenP2D=    1445.
 LDataN:  DoStor=T MaxTD1= 5 Len=  102
 Leave Link  701 at Thu Oct 15 06:18:50 2020, MaxMem=  1073741824 cpu:               0.6 elap:               0.1
 (Enter l702.exe)
 L702 exits ... SP integral derivatives will be done elsewhere.
 Leave Link  702 at Thu Oct 15 06:18:50 2020, MaxMem=  1073741824 cpu:               0.1 elap:               0.0
 (Enter l703.exe)
 Integral derivatives from FoFJK, PRISM(SPDF).
 Compute integral first derivatives, UseDBF=F ICtDFT=           0.
 Calling FoFJK, ICntrl=      2127 FMM=F ISym2X=0 I1Cent= 0 IOpClX= 0 NMat=1 NMatS=1 NMatT=0.
 FoFJK:  IHMeth= 1 ICntrl=    2127 DoSepK=F KAlg= 0 I1Cent=           0 FoldK=F
 IRaf=         0 NMat=       1 IRICut=       1 DoRegI=T DoRafI=F ISym2E= 0 IDoP0=0 IntGTp=1.
 FoFCou: FMM=F IPFlag=           0 FMFlag=      100000 FMFlg1=         800
         NFxFlg=           0 DoJE=F BraDBF=F KetDBF=F FulRan=T
         wScrn=  0.000000 ICntrl=      2127 IOpCl=  0 I1Cent=           0 NGrid=           0
         NMat0=    1 NMatS0=      1 NMatT0=    0 NMatD0=    1 NMtDS0=    0 NMtDT0=    0
 Symmetry not used in FoFCou.
 Leave Link  703 at Thu Oct 15 06:18:51 2020, MaxMem=  1073741824 cpu:               2.6 elap:               0.4
 (Enter l716.exe)
 Dipole        =-8.93443568D-08 7.20642820D-07 3.12408409D-07
 ***** Axes restored to original set *****
 -------------------------------------------------------------------
 Center     Atomic                   Forces (Hartrees/Bohr)
 Number     Number              X              Y              Z
 -------------------------------------------------------------------
      1        6           0.002692805   -0.000011189    0.000007713
      2        6          -0.002692222    0.000011312   -0.000006966
      3        1           0.000068829   -0.000024466    0.000014929
      4        1           0.000076481   -0.000001463   -0.000027131
      5        1           0.000075971    0.000031919    0.000008438
      6        1          -0.000076154   -0.000031903   -0.000008755
      7        1          -0.000076725    0.000001423    0.000027090
      8        1          -0.000068986    0.000024366   -0.000015319
 -------------------------------------------------------------------
 Cartesian Forces:  Max     0.002692805 RMS     0.000778292
 Leave Link  716 at Thu Oct 15 06:18:51 2020, MaxMem=  1073741824 cpu:               0.0 elap:               0.0
 (Enter l103.exe)

 GradGradGradGradGradGradGradGradGradGradGradGradGradGradGradGradGradGrad
 Berny optimization.
 Using GEDIIS/GDIIS optimizer.
 FormGI is forming the generalized inverse of G from B-inverse, IUseBI=4.
 Internal  Forces:  Max     0.002914087 RMS     0.000553195
 Search for a local minimum.
 Step number   2 out of a maximum of   38 on scan point     1 out of    10
 All quantities printed in internal units (Hartrees-Bohrs-Radians)
 RMS Force = .56335D-03 SwitMx=.10000D-02 MixMth= 2
 Mixed Optimization -- En-DIIS/RFO-DIIS
 Update second derivatives using D2CorX and points    1    2
 DE= -3.95D-04 DEPred=-4.56D-04 R= 8.67D-01
 TightC=F SS=  1.41D+00  RLast= 6.36D-02 DXNew= 5.0454D-01 1.9068D-01
 Trust test= 8.67D-01 RLast= 6.36D-02 DXMaxT set to 3.00D-01
 ITU=  1  0
 Use linear search instead of GDIIS.
     Eigenvalues ---    0.01962   0.05618   0.05619   0.05619   0.15586
     Eigenvalues ---    0.16000   0.16000   0.16000   0.16000   0.16000
     Eigenvalues ---    0.33081   0.34344   0.34344   0.34345   0.34345
     Eigenvalues ---    0.34345   0.372411000.000001000.000001000.00000
     Eigenvalues --- 1000.000001000.000001000.000001000.000001000.00000
     Eigenvalues --- 1000.000001000.000001000.00000
 RFO step:  Lambda=-1.19589443D-05 EMin= 1.96190785D-02
 Quartic linear search produced a step of -0.10825.
 Iteration  1 RMS(Cart)=  0.00236758 RMS(Int)=  0.00000654
 Iteration  2 RMS(Cart)=  0.00000008 RMS(Int)=  0.00000654
 Iteration  1 RMS(Cart)=  0.00000000 RMS(Int)=  0.00000000
 ITry= 1 IFail=0 DXMaxC= 4.58D-03 DCOld= 1.00D+10 DXMaxT= 3.00D-01 DXLimC= 3.00D+00 Rises=F
 Variable       Old X    -DE/DX   Delta X   Delta X   Delta X     New X
                                 (Linear)    (Quad)   (Total)
    R1        2.88923  -0.00291  -0.00345  -0.00454  -0.00799   2.88124
    R2        2.07722   0.00000  -0.00105   0.00116   0.00011   2.07734
    R3        2.07723  -0.00000  -0.00105   0.00115   0.00010   2.07733
    R4        2.07721   0.00000  -0.00105   0.00116   0.00011   2.07733
    R5        2.07721   0.00000  -0.00105   0.00116   0.00011   2.07733
    R6        2.07723  -0.00000  -0.00105   0.00115   0.00010   2.07733
    R7        2.07722   0.00000  -0.00105   0.00116   0.00011   2.07734
    A1        1.94369  -0.00007  -0.00151   0.00124  -0.00025   1.94344
    A2        1.94373  -0.00008  -0.00151   0.00117  -0.00033   1.94340
    A3        1.94373  -0.00008  -0.00151   0.00117  -0.00033   1.94340
    A4        1.87645   0.00008   0.00159  -0.00128   0.00032   1.87677
    A5        1.87639   0.00008   0.00159  -0.00125   0.00036   1.87674
    A6        1.87642   0.00008   0.00159  -0.00129   0.00031   1.87673
    A7        1.94373  -0.00008  -0.00151   0.00116  -0.00034   1.94340
    A8        1.94373  -0.00008  -0.00151   0.00117  -0.00033   1.94340
    A9        1.94369  -0.00007  -0.00151   0.00124  -0.00026   1.94344
   A10        1.87642   0.00008   0.00159  -0.00129   0.00031   1.87673
   A11        1.87639   0.00008   0.00159  -0.00125   0.00035   1.87674
   A12        1.87644   0.00008   0.00159  -0.00127   0.00032   1.87677
    D1        1.04725  -0.00000  -0.00000  -0.00005  -0.00005   1.04719
    D2       -1.04717   0.00000  -0.00000   0.00001   0.00001  -1.04716
    D3       -3.14159  -0.00000   0.00000  -0.00000  -0.00000  -3.14159
    D4       -1.04718  -0.00000  -0.00000  -0.00006  -0.00006  -1.04723
    D5       -3.14159   0.00000  -0.00000   0.00000  -0.00000  -3.14159
    D6        1.04718  -0.00000   0.00000  -0.00001  -0.00001   1.04717
    D7        3.14159   0.00000  -0.00000   0.00000   0.00000  -3.14159
    D8        1.04718   0.00000   0.00000   0.00006   0.00006   1.04724
    D9       -1.04724   0.00000   0.00000   0.00005   0.00005  -1.04719
         Item               Value     Threshold  Converged?
 Maximum Force            0.002914     0.000450     NO 
 RMS     Force            0.000563     0.000300     NO 
 Maximum Displacement     0.004581     0.001800     NO 
 RMS     Displacement     0.002368     0.001200     NO 
 Predicted change in Energy=-1.168036D-05
 Lowest energy point so far.  Saving SCF results.
 GradGradGradGradGradGradGradGradGradGradGradGradGradGradGradGradGradGrad

 Leave Link  103 at Thu Oct 15 06:18:51 2020, MaxMem=  1073741824 cpu:               0.1 elap:               0.0
 (Enter l202.exe)
                          Input orientation:                          
 ---------------------------------------------------------------------
 Center     Atomic      Atomic             Coordinates (Angstroms)
 Number     Number       Type             X           Y           Z
 ---------------------------------------------------------------------
      1          6           0        1.041115   -0.012930    0.089140
      2          6           0        2.565799   -0.012908    0.089127
      3          1           0        0.640913   -0.828357    0.708279
      4          1           0        0.640929   -0.141379   -0.926615
      5          1           0        0.640926    0.930974    0.485752
      6          1           0        2.965990   -0.956811   -0.307486
      7          1           0        2.965986    0.115540    1.104882
      8          1           0        2.966003    0.802520   -0.530010
 ---------------------------------------------------------------------
                    Distance matrix (angstroms):
                    1          2          3          4          5
     1  C    0.000000
     2  C    1.524684   0.000000
     3  H    1.099280   2.180251   0.000000
     4  H    1.099275   2.180220   1.773363   0.000000
     5  H    1.099275   2.180221   1.773348   1.773336   0.000000
     6  H    2.180221   1.099275   2.540524   2.540503   3.098206
     7  H    2.180220   1.099275   2.540511   3.098205   2.540503
     8  H    2.180252   1.099280   3.098252   2.540514   2.540523
                    6          7          8
     6  H    0.000000
     7  H    1.773335   0.000000
     8  H    1.773348   1.773362   0.000000
 Stoichiometry    C2H6
 Framework group  C1[X(C2H6)]
 Deg. of freedom    18
 Full point group                 C1      NOp   1
 RotChk:  IX=2 Diff= 7.14D-01
 Largest Abelian subgroup         C1      NOp   1
 Largest concise Abelian subgroup C1      NOp   1
                         Standard orientation:                         
 ---------------------------------------------------------------------
 Center     Atomic      Atomic             Coordinates (Angstroms)
 Number     Number       Type             X           Y           Z
 ---------------------------------------------------------------------
      1          6           0        0.762342    0.000001   -0.000003
      2          6           0       -0.762342   -0.000001    0.000002
      3          1           0        1.162560    0.982221   -0.288939
      4          1           0        1.162520   -0.741366   -0.706147
      5          1           0        1.162525   -0.240891    0.995101
      6          1           0       -1.162526    0.240890   -0.995101
      7          1           0       -1.162519    0.741367    0.706146
      8          1           0       -1.162561   -0.982221    0.288941
 ---------------------------------------------------------------------
 Rotational constants (GHZ):          79.7285423          19.9836185          19.9835299
 Leave Link  202 at Thu Oct 15 06:18:51 2020, MaxMem=  1073741824 cpu:               0.0 elap:               0.0
 (Enter l301.exe)
 Standard basis: def2SVP (5D, 7F)
 Ernie: Thresh=  0.10000D-02 Tol=  0.10000D-05 Strict=F.
 There are    60 symmetry adapted cartesian basis functions of A   symmetry.
 There are    58 symmetry adapted basis functions of A   symmetry.
    58 basis functions,    92 primitive gaussians,    60 cartesian basis functions
     9 alpha electrons        9 beta electrons
       nuclear repulsion energy        42.1149490899 Hartrees.
 IExCor= 4336 DFT=T Ex+Corr=M062X ExCW=0 ScaHFX=  0.540000
 ScaDFX=  1.000000  1.000000  1.000000  1.000000 ScalE2=  1.000000  1.000000
 IRadAn=      5 IRanWt=     -1 IRanGd=            0 ICorTp=0 IEmpDi=  4
 NAtoms=    8 NActive=    8 NUniq=    8 SFac= 1.00D+00 NAtFMM=   60 NAOKFM=F Big=F
 Integral buffers will be    131072 words long.
 Raffenetti 2 integral format.
 Two-electron integral symmetry is turned on.
 Leave Link  301 at Thu Oct 15 06:18:51 2020, MaxMem=  1073741824 cpu:               0.1 elap:               0.0
 (Enter l302.exe)
 NPDir=0 NMtPBC=     1 NCelOv=     1 NCel=       1 NClECP=     1 NCelD=      1
         NCelK=      1 NCelE2=     1 NClLst=     1 CellRange=     0.0.
 One-electron integrals computed using PRISM.
 One-electron integral symmetry used in STVInt
   1 Symmetry operations used in ECPInt.
 ECPInt:  NShTT=     465 NPrTT=    1529 LenC2=     466 LenP2D=    1445.
 LDataN:  DoStor=T MaxTD1= 4 Len=   56
 NBasis=    58 RedAO= T EigKep=  4.47D-03  NBF=    58
 NBsUse=    58 1.00D-06 EigRej= -1.00D+00 NBFU=    58
 Precomputing XC quadrature grid using
 IXCGrd= 4 IRadAn=           5 IRanWt=          -1 IRanGd=           0 AccXCQ= 0.00D+00.
 Generated NRdTot=       0 NPtTot=           0 NUsed=           0 NTot=          32
 NSgBfM=    60    60    60    60    60 MxSgAt=     8 MxSgA2=     8.
 Leave Link  302 at Thu Oct 15 06:18:51 2020, MaxMem=  1073741824 cpu:               0.4 elap:               0.1
 (Enter l303.exe)
 DipDrv:  MaxL=1.
 Leave Link  303 at Thu Oct 15 06:18:51 2020, MaxMem=  1073741824 cpu:               0.0 elap:               0.0
 (Enter l401.exe)
 Initial guess from the checkpoint file:  "in.chk"
 B after Tr=     0.000000   -0.000000   -0.000000
         Rot=    0.967584   -0.252551    0.000005    0.000008 Ang= -29.26 deg.
 Guess basis will be translated and rotated to current coordinates.
 JPrj=2 DoOrth=T DoCkMO=T.
 Leave Link  401 at Thu Oct 15 06:18:51 2020, MaxMem=  1073741824 cpu:               0.2 elap:               0.0
 (Enter l502.exe)
 Keep R1 ints in memory in canonical form, NReq=8542056.
 FoFCou: FMM=F IPFlag=           0 FMFlag=           0 FMFlg1=           0
         NFxFlg=           0 DoJE=F BraDBF=F KetDBF=F FulRan=T
         wScrn=  0.000000 ICntrl=       600 IOpCl=  0 I1Cent=           0 NGrid=           0
         NMat0=    1 NMatS0=   1711 NMatT0=    0 NMatD0=    1 NMtDS0=    0 NMtDT0=    0
 Symmetry not used in FoFCou.
 Two-electron integral symmetry not used.
 Closed shell SCF:
 Using DIIS extrapolation, IDIIS=  1040.
 NGot=  1073741824 LenX=  1072268660 LenY=  1072264619
 Requested convergence on RMS density matrix=1.00D-08 within 128 cycles.
 Requested convergence on MAX density matrix=1.00D-06.
 Requested convergence on             energy=1.00D-06.
 No special actions if energy rises.

 Cycle   1  Pass 1  IDiag  1:
 E= -79.7103906327892    
 DIIS: error= 2.96D-04 at cycle   1 NSaved=   1.
 NSaved= 1 IEnMin= 1 EnMin= -79.7103906327892     IErMin= 1 ErrMin= 2.96D-04
 ErrMax= 2.96D-04  0.00D+00 EMaxC= 1.00D-01 BMatC= 1.99D-06 BMatP= 1.99D-06
 IDIUse=3 WtCom= 9.97D-01 WtEn= 2.96D-03
 Coeff-Com:  0.100D+01
 Coeff-En:   0.100D+01
 Coeff:      0.100D+01
 Gap=     0.736 Goal=   None    Shift=    0.000
 RMSDP=3.89D-05 MaxDP=4.40D-04              OVMax= 6.79D-04

 Cycle   2  Pass 1  IDiag  1:
 E= -79.7103937109760     Delta-E=       -0.000003078187 Rises=F Damp=F
 DIIS: error= 6.14D-05 at cycle   2 NSaved=   2.
 NSaved= 2 IEnMin= 2 EnMin= -79.7103937109760     IErMin= 2 ErrMin= 6.14D-05
 ErrMax= 6.14D-05  0.00D+00 EMaxC= 1.00D-01 BMatC= 1.47D-07 BMatP= 1.99D-06
 IDIUse=1 WtCom= 1.00D+00 WtEn= 0.00D+00
 Coeff-Com:  0.577D-01 0.942D+00
 Coeff:      0.577D-01 0.942D+00
 Gap=     0.505 Goal=   None    Shift=    0.000
 RMSDP=8.96D-06 MaxDP=1.19D-04 DE=-3.08D-06 OVMax= 1.85D-04

 Cycle   3  Pass 1  IDiag  1:
 E= -79.7103938262164     Delta-E=       -0.000000115240 Rises=F Damp=F
 DIIS: error= 3.94D-05 at cycle   3 NSaved=   3.
 NSaved= 3 IEnMin= 3 EnMin= -79.7103938262164     IErMin= 3 ErrMin= 3.94D-05
 ErrMax= 3.94D-05  0.00D+00 EMaxC= 1.00D-01 BMatC= 5.85D-08 BMatP= 1.47D-07
 IDIUse=1 WtCom= 1.00D+00 WtEn= 0.00D+00
 Coeff-Com: -0.486D-01 0.373D+00 0.675D+00
 Coeff:     -0.486D-01 0.373D+00 0.675D+00
 Gap=     0.505 Goal=   None    Shift=    0.000
 RMSDP=3.91D-06 MaxDP=5.79D-05 DE=-1.15D-07 OVMax= 7.34D-05

 Cycle   4  Pass 1  IDiag  1:
 E= -79.7103938883053     Delta-E=       -0.000000062089 Rises=F Damp=F
 DIIS: error= 4.67D-06 at cycle   4 NSaved=   4.
 NSaved= 4 IEnMin= 4 EnMin= -79.7103938883053     IErMin= 4 ErrMin= 4.67D-06
 ErrMax= 4.67D-06  0.00D+00 EMaxC= 1.00D-01 BMatC= 8.21D-10 BMatP= 5.85D-08
 IDIUse=1 WtCom= 1.00D+00 WtEn= 0.00D+00
 Coeff-Com: -0.809D-02 0.977D-02 0.119D+00 0.879D+00
 Coeff:     -0.809D-02 0.977D-02 0.119D+00 0.879D+00
 Gap=     0.505 Goal=   None    Shift=    0.000
 RMSDP=6.23D-07 MaxDP=7.60D-06 DE=-6.21D-08 OVMax= 1.05D-05

 Cycle   5  Pass 1  IDiag  1:
 E= -79.7103938892873     Delta-E=       -0.000000000982 Rises=F Damp=F
 DIIS: error= 4.01D-07 at cycle   5 NSaved=   5.
 NSaved= 5 IEnMin= 5 EnMin= -79.7103938892873     IErMin= 5 ErrMin= 4.01D-07
 ErrMax= 4.01D-07  0.00D+00 EMaxC= 1.00D-01 BMatC= 9.70D-12 BMatP= 8.21D-10
 IDIUse=1 WtCom= 1.00D+00 WtEn= 0.00D+00
 Coeff-Com:  0.675D-03-0.104D-01-0.493D-02 0.103D+00 0.911D+00
 Coeff:      0.675D-03-0.104D-01-0.493D-02 0.103D+00 0.911D+00
 Gap=     0.505 Goal=   None    Shift=    0.000
 RMSDP=5.83D-08 MaxDP=4.55D-07 DE=-9.82D-10 OVMax= 9.78D-07

 Cycle   6  Pass 1  IDiag  1:
 E= -79.7103938892972     Delta-E=       -0.000000000010 Rises=F Damp=F
 DIIS: error= 5.27D-08 at cycle   6 NSaved=   6.
 NSaved= 6 IEnMin= 6 EnMin= -79.7103938892972     IErMin= 6 ErrMin= 5.27D-08
 ErrMax= 5.27D-08  0.00D+00 EMaxC= 1.00D-01 BMatC= 3.72D-14 BMatP= 9.70D-12
 IDIUse=1 WtCom= 1.00D+00 WtEn= 0.00D+00
 Coeff-Com: -0.674D-05 0.100D-02-0.608D-03-0.183D-01-0.120D+00 0.114D+01
 Coeff:     -0.674D-05 0.100D-02-0.608D-03-0.183D-01-0.120D+00 0.114D+01
 Gap=     0.505 Goal=   None    Shift=    0.000
 RMSDP=1.40D-08 MaxDP=1.49D-07 DE=-9.98D-12 OVMax= 3.08D-07

 Cycle   7  Pass 1  IDiag  1:
 E= -79.7103938892974     Delta-E=       -0.000000000000 Rises=F Damp=F
 DIIS: error= 4.56D-09 at cycle   7 NSaved=   7.
 NSaved= 7 IEnMin= 7 EnMin= -79.7103938892974     IErMin= 7 ErrMin= 4.56D-09
 ErrMax= 4.56D-09  0.00D+00 EMaxC= 1.00D-01 BMatC= 4.36D-16 BMatP= 3.72D-14
 IDIUse=1 WtCom= 1.00D+00 WtEn= 0.00D+00
 Coeff-Com: -0.134D-05-0.107D-03 0.150D-03 0.268D-02 0.113D-01-0.184D+00
 Coeff-Com:  0.117D+01
 Coeff:     -0.134D-05-0.107D-03 0.150D-03 0.268D-02 0.113D-01-0.184D+00
 Coeff:      0.117D+01
 Gap=     0.505 Goal=   None    Shift=    0.000
 RMSDP=1.23D-09 MaxDP=1.15D-08 DE=-1.42D-13 OVMax= 2.69D-08

 SCF Done:  E(RM062X) =  -79.7103938893     A.U. after    7 cycles
            NFock=  7  Conv=0.12D-08     -V/T= 2.0138
 KE= 7.862873053611D+01 PE=-2.675076412237D+02 EE= 6.705356770842D+01
 Leave Link  502 at Thu Oct 15 06:18:52 2020, MaxMem=  1073741824 cpu:               7.8 elap:               1.0
 (Enter l701.exe)
 ... and contract with generalized density number  0.
 Compute integral first derivatives.
   1 Symmetry operations used in ECPInt.
 ECPInt:  NShTT=     465 NPrTT=    1529 LenC2=     466 LenP2D=    1445.
 LDataN:  DoStor=T MaxTD1= 5 Len=  102
 Leave Link  701 at Thu Oct 15 06:18:52 2020, MaxMem=  1073741824 cpu:               0.4 elap:               0.1
 (Enter l702.exe)
 L702 exits ... SP integral derivatives will be done elsewhere.
 Leave Link  702 at Thu Oct 15 06:18:52 2020, MaxMem=  1073741824 cpu:               0.0 elap:               0.0
 (Enter l703.exe)
 Integral derivatives from FoFJK, PRISM(SPDF).
 Compute integral first derivatives, UseDBF=F ICtDFT=           0.
 Calling FoFJK, ICntrl=      2127 FMM=F ISym2X=0 I1Cent= 0 IOpClX= 0 NMat=1 NMatS=1 NMatT=0.
 FoFJK:  IHMeth= 1 ICntrl=    2127 DoSepK=F KAlg= 0 I1Cent=           0 FoldK=F
 IRaf=         0 NMat=       1 IRICut=       1 DoRegI=T DoRafI=F ISym2E= 0 IDoP0=0 IntGTp=1.
 FoFCou: FMM=F IPFlag=           0 FMFlag=      100000 FMFlg1=         800
         NFxFlg=           0 DoJE=F BraDBF=F KetDBF=F FulRan=T
         wScrn=  0.000000 ICntrl=      2127 IOpCl=  0 I1Cent=           0 NGrid=           0
         NMat0=    1 NMatS0=      1 NMatT0=    0 NMatD0=    1 NMtDS0=    0 NMtDT0=    0
 Symmetry not used in FoFCou.
 Leave Link  703 at Thu Oct 15 06:18:52 2020, MaxMem=  1073741824 cpu:               2.6 elap:               0.3
 (Enter l716.exe)
 Dipole        =-3.49303013D-08 1.50103058D-07 1.85030929D-07
 ***** Axes restored to original set *****
 -------------------------------------------------------------------
 Center     Atomic                   Forces (Hartrees/Bohr)
 Number     Number              X              Y              Z
 -------------------------------------------------------------------
      1        6           0.000671671    0.000004322   -0.000008281
      2        6          -0.000671494   -0.000004306    0.000008504
      3        1          -0.000070339    0.000031786   -0.000023436
      4        1          -0.000077609    0.000002321    0.000037557
      5        1          -0.000073504   -0.000034395   -0.000010085
      6        1           0.000073442    0.000034398    0.000009995
      7        1           0.000077540   -0.000002321   -0.000037563
      8        1           0.000070292   -0.000031804    0.000023310
 -------------------------------------------------------------------
 Cartesian Forces:  Max     0.000671671 RMS     0.000198270
 Leave Link  716 at Thu Oct 15 06:18:52 2020, MaxMem=  1073741824 cpu:               0.0 elap:               0.0
 (Enter l103.exe)

 GradGradGradGradGradGradGradGradGradGradGradGradGradGradGradGradGradGrad
 Berny optimization.
 Using GEDIIS/GDIIS optimizer.
 FormGI is forming the generalized inverse of G from B-inverse, IUseBI=4.
 Internal  Forces:  Max     0.000450220 RMS     0.000100971
 Search for a local minimum.
 Step number   3 out of a maximum of   38 on scan point     1 out of    10
 All quantities printed in internal units (Hartrees-Bohrs-Radians)
 RMS Force = .10282D-03 SwitMx=.10000D-02 MixMth= 2
 Mixed Optimization -- En-DIIS/RFO-DIIS
 Swapping is turned off.
 Update second derivatives using D2CorX and points    1    2    3
 DE= -1.35D-05 DEPred=-1.17D-05 R= 1.16D+00
 TightC=F SS=  1.41D+00  RLast= 8.07D-03 DXNew= 5.0454D-01 2.4225D-02
 Trust test= 1.16D+00 RLast= 8.07D-03 DXMaxT set to 3.00D-01
 ITU=  1  1  0
     Eigenvalues ---    0.01963   0.05621   0.05622   0.05622   0.14872
     Eigenvalues ---    0.16000   0.16000   0.16000   0.16000   0.16001
     Eigenvalues ---    0.31468   0.33915   0.34344   0.34344   0.34345
     Eigenvalues ---    0.34345   0.343481000.000001000.000001000.00000
     Eigenvalues --- 1000.000001000.000001000.000001000.000001000.00000
     Eigenvalues --- 1000.000001000.000001000.00000
 En-DIIS/RFO-DIIS/Sim-DIIS IScMMF=       -3 using points:     3    2
 RFO step:  Lambda=-1.49023659D-06.
 NNeg= 0 NGDIIS= 2 SimSw=  2.50D-03 Rises=F DC= -1.35D-05 SmlDif=  1.00D-05
 NRisDI= 0 DoIntr=F SqrtH=F CThrHd= 10.0 CDAdj=  3.0
 RMS Error=  0.5569871868D-03 NUsed= 2 OKEnD=T EnDIS=F
 InvSVX:  RCond= 1.63D-05 Info=           0 Equed=N FErr=  1.47D-15 BErr=  1.55D-17
 DidBck=F Rises=F RFO-DIIS coefs:    1.18840   -0.18840
 Iteration  1 RMS(Cart)=  0.00035920 RMS(Int)=  0.00000025
 Iteration  2 RMS(Cart)=  0.00000027 RMS(Int)=  0.00000013
 Iteration  1 RMS(Cart)=  0.00000000 RMS(Int)=  0.00000000
 ITry= 1 IFail=0 DXMaxC= 9.27D-04 DCOld= 1.00D+10 DXMaxT= 3.00D-01 DXLimC= 3.00D+00 Rises=F
 Variable       Old X    -DE/DX   Delta X   Delta X   Delta X     New X
                                 (Linear)    (Quad)   (Total)
    R1        2.88124  -0.00045  -0.00151  -0.00035  -0.00185   2.87938
    R2        2.07734  -0.00001   0.00002  -0.00001   0.00001   2.07735
    R3        2.07733  -0.00001   0.00002   0.00001   0.00003   2.07736
    R4        2.07733  -0.00001   0.00002   0.00000   0.00003   2.07736
    R5        2.07733  -0.00001   0.00002   0.00000   0.00003   2.07736
    R6        2.07733  -0.00001   0.00002   0.00001   0.00003   2.07736
    R7        2.07734  -0.00001   0.00002  -0.00001   0.00001   2.07735
    A1        1.94344   0.00008  -0.00005   0.00064   0.00059   1.94403
    A2        1.94340   0.00008  -0.00006   0.00075   0.00068   1.94408
    A3        1.94340   0.00008  -0.00006   0.00070   0.00064   1.94404
    A4        1.87677  -0.00009   0.00006  -0.00076  -0.00070   1.87607
    A5        1.87674  -0.00008   0.00007  -0.00076  -0.00070   1.87605
    A6        1.87673  -0.00009   0.00006  -0.00071  -0.00065   1.87608
    A7        1.94340   0.00008  -0.00006   0.00070   0.00064   1.94404
    A8        1.94340   0.00008  -0.00006   0.00075   0.00068   1.94408
    A9        1.94344   0.00008  -0.00005   0.00064   0.00059   1.94403
   A10        1.87673  -0.00009   0.00006  -0.00071  -0.00065   1.87608
   A11        1.87674  -0.00008   0.00007  -0.00076  -0.00070   1.87605
   A12        1.87677  -0.00009   0.00006  -0.00076  -0.00070   1.87607
    D1        1.04719   0.00000  -0.00001   0.00006   0.00005   1.04725
    D2       -1.04716  -0.00000   0.00000  -0.00002  -0.00002  -1.04718
    D3       -3.14159  -0.00000  -0.00000  -0.00000  -0.00000  -3.14159
    D4       -1.04723   0.00000  -0.00001   0.00008   0.00007  -1.04716
    D5       -3.14159   0.00000  -0.00000   0.00000  -0.00000  -3.14159
    D6        1.04717   0.00000  -0.00000   0.00002   0.00002   1.04718
    D7       -3.14159   0.00000   0.00000   0.00000   0.00000  -3.14159
    D8        1.04724  -0.00000   0.00001  -0.00008  -0.00007   1.04717
    D9       -1.04719  -0.00000   0.00001  -0.00006  -0.00005  -1.04724
         Item               Value     Threshold  Converged?
 Maximum Force            0.000450     0.000450     NO 
 RMS     Force            0.000103     0.000300     YES
 Maximum Displacement     0.000927     0.001800     YES
 RMS     Displacement     0.000359     0.001200     YES
 Predicted change in Energy=-7.451256D-07
 Lowest energy point so far.  Saving SCF results.
 GradGradGradGradGradGradGradGradGradGradGradGradGradGradGradGradGradGrad

 Leave Link  103 at Thu Oct 15 06:18:52 2020, MaxMem=  1073741824 cpu:               0.1 elap:               0.0
 (Enter l202.exe)
                          Input orientation:                          
 ---------------------------------------------------------------------
 Center     Atomic      Atomic             Coordinates (Angstroms)
 Number     Number       Type             X           Y           Z
 ---------------------------------------------------------------------
      1          6           0        1.041606   -0.012919    0.089120
      2          6           0        2.565309   -0.012919    0.089148
      3          1           0        0.640767   -0.828149    0.708116
      4          1           0        0.640739   -0.141360   -0.926384
      5          1           0        0.640760    0.930751    0.485665
      6          1           0        2.966155   -0.956588   -0.307399
      7          1           0        2.966176    0.115521    1.104651
      8          1           0        2.966148    0.802312   -0.529848
 ---------------------------------------------------------------------
                    Distance matrix (angstroms):
                    1          2          3          4          5
     1  C    0.000000
     2  C    1.523703   0.000000
     3  H    1.099285   2.179813   0.000000
     4  H    1.099290   2.179856   1.772927   0.000000
     5  H    1.099289   2.179823   1.772911   1.772936   0.000000
     6  H    2.179823   1.099289   2.540707   2.540727   3.098138
     7  H    2.179856   1.099290   2.540724   3.098184   2.540728
     8  H    2.179813   1.099285   3.098121   2.540725   2.540706
                    6          7          8
     6  H    0.000000
     7  H    1.772936   0.000000
     8  H    1.772911   1.772927   0.000000
 Stoichiometry    C2H6
 Framework group  C1[X(C2H6)]
 Deg. of freedom    18
 Full point group                 C1      NOp   1
 RotChk:  IX=3 Diff= 1.30D+00
 Largest Abelian subgroup         C1      NOp   1
 Largest concise Abelian subgroup C1      NOp   1
                         Standard orientation:                         
 ---------------------------------------------------------------------
 Center     Atomic      Atomic             Coordinates (Angstroms)
 Number     Number       Type             X           Y           Z
 ---------------------------------------------------------------------
      1          6           0        0.761852   -0.000002    0.000001
      2          6           0       -0.761852    0.000002   -0.000001
      3          1           0        1.162680    0.330568   -0.968756
      4          1           0        1.162734   -1.004236    0.198107
      5          1           0        1.162691    0.673716    0.770630
      6          1           0       -1.162691   -0.673716   -0.770629
      7          1           0       -1.162734    1.004236   -0.198108
      8          1           0       -1.162680   -0.330567    0.968756
 ---------------------------------------------------------------------
 Rotational constants (GHZ):          79.7666802          19.9971416          19.9970581
 Leave Link  202 at Thu Oct 15 06:18:52 2020, MaxMem=  1073741824 cpu:               0.0 elap:               0.0
 (Enter l301.exe)
 Standard basis: def2SVP (5D, 7F)
 Ernie: Thresh=  0.10000D-02 Tol=  0.10000D-05 Strict=F.
 There are    60 symmetry adapted cartesian basis functions of A   symmetry.
 There are    58 symmetry adapted basis functions of A   symmetry.
    58 basis functions,    92 primitive gaussians,    60 cartesian basis functions
     9 alpha electrons        9 beta electrons
       nuclear repulsion energy        42.1247538202 Hartrees.
 IExCor= 4336 DFT=T Ex+Corr=M062X ExCW=0 ScaHFX=  0.540000
 ScaDFX=  1.000000  1.000000  1.000000  1.000000 ScalE2=  1.000000  1.000000
 IRadAn=      5 IRanWt=     -1 IRanGd=            0 ICorTp=0 IEmpDi=  4
 NAtoms=    8 NActive=    8 NUniq=    8 SFac= 1.00D+00 NAtFMM=   60 NAOKFM=F Big=F
 Integral buffers will be    131072 words long.
 Raffenetti 2 integral format.
 Two-electron integral symmetry is turned on.
 Leave Link  301 at Thu Oct 15 06:18:52 2020, MaxMem=  1073741824 cpu:               0.1 elap:               0.0
 (Enter l302.exe)
 NPDir=0 NMtPBC=     1 NCelOv=     1 NCel=       1 NClECP=     1 NCelD=      1
         NCelK=      1 NCelE2=     1 NClLst=     1 CellRange=     0.0.
 One-electron integrals computed using PRISM.
 One-electron integral symmetry used in STVInt
   1 Symmetry operations used in ECPInt.
 ECPInt:  NShTT=     465 NPrTT=    1529 LenC2=     466 LenP2D=    1445.
 LDataN:  DoStor=T MaxTD1= 4 Len=   56
 NBasis=    58 RedAO= T EigKep=  4.46D-03  NBF=    58
 NBsUse=    58 1.00D-06 EigRej= -1.00D+00 NBFU=    58
 Precomputing XC quadrature grid using
 IXCGrd= 4 IRadAn=           5 IRanWt=          -1 IRanGd=           0 AccXCQ= 0.00D+00.
 Generated NRdTot=       0 NPtTot=           0 NUsed=           0 NTot=          32
 NSgBfM=    60    60    60    60    60 MxSgAt=     8 MxSgA2=     8.
 Leave Link  302 at Thu Oct 15 06:18:52 2020, MaxMem=  1073741824 cpu:               0.5 elap:               0.1
 (Enter l303.exe)
 DipDrv:  MaxL=1.
 Leave Link  303 at Thu Oct 15 06:18:52 2020, MaxMem=  1073741824 cpu:               0.0 elap:               0.0
 (Enter l401.exe)
 Initial guess from the checkpoint file:  "in.chk"
 B after Tr=     0.000000    0.000000   -0.000000
         Rot=    0.887947    0.459946   -0.000002   -0.000009 Ang=  54.77 deg.
 Guess basis will be translated and rotated to current coordinates.
 JPrj=2 DoOrth=T DoCkMO=T.
 Leave Link  401 at Thu Oct 15 06:18:52 2020, MaxMem=  1073741824 cpu:               0.2 elap:               0.0
 (Enter l502.exe)
 Keep R1 ints in memory in canonical form, NReq=8542056.
 FoFCou: FMM=F IPFlag=           0 FMFlag=           0 FMFlg1=           0
         NFxFlg=           0 DoJE=F BraDBF=F KetDBF=F FulRan=T
         wScrn=  0.000000 ICntrl=       600 IOpCl=  0 I1Cent=           0 NGrid=           0
         NMat0=    1 NMatS0=   1711 NMatT0=    0 NMatD0=    1 NMtDS0=    0 NMtDT0=    0
 Symmetry not used in FoFCou.
 Two-electron integral symmetry not used.
 Closed shell SCF:
 Using DIIS extrapolation, IDIIS=  1040.
 NGot=  1073741824 LenX=  1072268660 LenY=  1072264619
 Requested convergence on RMS density matrix=1.00D-08 within 128 cycles.
 Requested convergence on MAX density matrix=1.00D-06.
 Requested convergence on             energy=1.00D-06.
 No special actions if energy rises.

 Cycle   1  Pass 1  IDiag  1:
 E= -79.7103949859623    
 DIIS: error= 6.01D-05 at cycle   1 NSaved=   1.
 NSaved= 1 IEnMin= 1 EnMin= -79.7103949859623     IErMin= 1 ErrMin= 6.01D-05
 ErrMax= 6.01D-05  0.00D+00 EMaxC= 1.00D-01 BMatC= 1.53D-07 BMatP= 1.53D-07
 IDIUse=1 WtCom= 1.00D+00 WtEn= 0.00D+00
 Coeff-Com:  0.100D+01
 Coeff:      0.100D+01
 Gap=     0.736 Goal=   None    Shift=    0.000
 RMSDP=1.16D-05 MaxDP=1.32D-04              OVMax= 2.28D-04

 Cycle   2  Pass 1  IDiag  1:
 E= -79.7103952420664     Delta-E=       -0.000000256104 Rises=F Damp=F
 DIIS: error= 1.31D-05 at cycle   2 NSaved=   2.
 NSaved= 2 IEnMin= 2 EnMin= -79.7103952420664     IErMin= 2 ErrMin= 1.31D-05
 ErrMax= 1.31D-05  0.00D+00 EMaxC= 1.00D-01 BMatC= 1.09D-08 BMatP= 1.53D-07
 IDIUse=1 WtCom= 1.00D+00 WtEn= 0.00D+00
 Coeff-Com: -0.123D-01 0.101D+01
 Coeff:     -0.123D-01 0.101D+01
 Gap=     0.505 Goal=   None    Shift=    0.000
 RMSDP=2.66D-06 MaxDP=3.38D-05 DE=-2.56D-07 OVMax= 5.50D-05

 Cycle   3  Pass 1  IDiag  1:
 E= -79.7103952507405     Delta-E=       -0.000000008674 Rises=F Damp=F
 DIIS: error= 1.28D-05 at cycle   3 NSaved=   3.
 NSaved= 3 IEnMin= 3 EnMin= -79.7103952507405     IErMin= 3 ErrMin= 1.28D-05
 ErrMax= 1.28D-05  0.00D+00 EMaxC= 1.00D-01 BMatC= 5.60D-09 BMatP= 1.09D-08
 IDIUse=1 WtCom= 1.00D+00 WtEn= 0.00D+00
 Coeff-Com: -0.741D-01 0.442D+00 0.632D+00
 Coeff:     -0.741D-01 0.442D+00 0.632D+00
 Gap=     0.505 Goal=   None    Shift=    0.000
 RMSDP=1.15D-06 MaxDP=1.74D-05 DE=-8.67D-09 OVMax= 2.28D-05

 Cycle   4  Pass 1  IDiag  1:
 E= -79.7103952566919     Delta-E=       -0.000000005951 Rises=F Damp=F
 DIIS: error= 6.90D-07 at cycle   4 NSaved=   4.
 NSaved= 4 IEnMin= 4 EnMin= -79.7103952566919     IErMin= 4 ErrMin= 6.90D-07
[...]
     Eigenvalues ---    0.32432   0.34345   0.34345   0.34356   0.34497
     Eigenvalues ---    0.34905   0.354401000.000001000.000001000.00000
     Eigenvalues --- 1000.000001000.000001000.000001000.000001000.00000
     Eigenvalues --- 1000.000001000.000001000.00000
 En-DIIS/RFO-DIIS/Sim-DIIS IScMMF=       -3 using points:     3    2
 RFO step:  Lambda=-1.01514587D-07.
 NNeg= 0 NGDIIS= 2 SimSw=  2.50D-03 Rises=F DC= -2.18D-05 SmlDif=  1.00D-05
 NRisDI= 0 DoIntr=F SqrtH=F CThrHd= 10.0 CDAdj=  3.0
 RMS Error=  0.2001638902D-03 NUsed= 2 OKEnD=T EnDIS=F
 InvSVX:  RCond= 3.88D-03 Info=           0 Equed=N FErr=  8.89D-16 BErr=  2.55D-17
 DidBck=F Rises=F RFO-DIIS coefs:    0.99919    0.00081
 Iteration  1 RMS(Cart)=  0.00017929 RMS(Int)=  0.00000041
 Iteration  2 RMS(Cart)=  0.00000003 RMS(Int)=  0.00000041
 Iteration  1 RMS(Cart)=  0.00000072 RMS(Int)=  0.00000118
 ITry= 1 IFail=0 DXMaxC= 5.05D-04 DCOld= 1.00D+10 DXMaxT= 1.31D+00 DXLimC= 3.00D+00 Rises=F
 Variable       Old X    -DE/DX   Delta X   Delta X   Delta X     New X
                                 (Linear)    (Quad)   (Total)
    R1        2.89021   0.00002   0.00000  -0.00001  -0.00001   2.89020
    R2        2.07785   0.00002  -0.00000   0.00007   0.00007   2.07792
    R3        2.07675   0.00000  -0.00000   0.00001   0.00001   2.07675
    R4        2.07514   0.00001   0.00000   0.00004   0.00004   2.07518
    R5        2.07785   0.00002  -0.00000   0.00006   0.00006   2.07791
    R6        2.07675   0.00000  -0.00000   0.00001   0.00001   2.07675
    R7        2.07514   0.00001   0.00000   0.00004   0.00004   2.07518
    A1        1.93779   0.00051   0.00000  -0.00003  -0.00002   1.93777
    A2        1.94971   0.00003  -0.00000   0.00034   0.00034   1.95005
    A3        1.95656  -0.00051  -0.00000  -0.00003  -0.00003   1.95653
    A4        1.84948   0.00096   0.00001   0.00003   0.00003   1.84951
    A5        1.87250  -0.00001  -0.00000  -0.00033  -0.00033   1.87217
    A6        1.89288  -0.00093  -0.00001  -0.00000  -0.00001   1.89287
    A7        1.93780   0.00051   0.00000  -0.00004  -0.00004   1.93777
    A8        1.94971   0.00003  -0.00000   0.00035   0.00035   1.95006
    A9        1.95656  -0.00051  -0.00000  -0.00003  -0.00003   1.95653
   A10        1.84948   0.00096   0.00001   0.00003   0.00003   1.84951
   A11        1.87250  -0.00001  -0.00000  -0.00033  -0.00033   1.87217
   A12        1.89287  -0.00093  -0.00001   0.00000  -0.00000   1.89287
    D1       -0.59161   0.00028   0.00002   0.00047   0.00049  -0.59112
    D2       -2.65200  -0.00128   0.00001   0.00024   0.00025  -2.65176
    D3        1.50246   0.00027   0.00002   0.00000   0.00002   1.50248
    D4       -2.65200  -0.00128   0.00001   0.00023   0.00024  -2.65176
    D5        1.57079  -0.00284   0.00000   0.00000   0.00000   1.57079
    D6       -0.55793  -0.00129   0.00001  -0.00024  -0.00023  -0.55815
    D7        1.50246   0.00027   0.00002   0.00001   0.00003   1.50248
    D8       -0.55794  -0.00129   0.00001  -0.00022  -0.00021  -0.55815
    D9       -2.68666   0.00027   0.00002  -0.00046  -0.00044  -2.68710
         Item               Value     Threshold  Converged?
 Maximum Force            0.000040     0.000450     YES
 RMS     Force            0.000017     0.000300     YES
 Maximum Displacement     0.000505     0.001800     YES
 RMS     Displacement     0.000179     0.001200     YES
 Predicted change in Energy=-2.934877D-08
 Optimization completed.
    -- Stationary point found.
                           ----------------------------
                           !   Optimized Parameters   !
                           ! (Angstroms and Degrees)  !
 --------------------------                            --------------------------
 ! Name  Definition              Value          Derivative Info.                !
 --------------------------------------------------------------------------------
 ! R1    R(1,2)                  1.5294         -DE/DX =    0.0                 !
 ! R2    R(1,3)                  1.0995         -DE/DX =    0.0                 !
 ! R3    R(1,4)                  1.099          -DE/DX =    0.0                 !
 ! R4    R(1,5)                  1.0981         -DE/DX =    0.0                 !
 ! R5    R(2,6)                  1.0996         -DE/DX =    0.0                 !
 ! R6    R(2,7)                  1.099          -DE/DX =    0.0                 !
 ! R7    R(2,8)                  1.0981         -DE/DX =    0.0                 !
 ! A1    A(2,1,3)              111.0273         -DE/DX =    0.0005              !
 ! A2    A(2,1,4)              111.7101         -DE/DX =    0.0                 !
 ! A3    A(2,1,5)              112.1028         -DE/DX =   -0.0005              !
 ! A4    A(3,1,4)              105.9672         -DE/DX =    0.001               !
 ! A5    A(3,1,5)              107.2865         -DE/DX =    0.0                 !
 ! A6    A(4,1,5)              108.4542         -DE/DX =   -0.0009              !
 ! A7    A(1,2,6)              111.028          -DE/DX =    0.0005              !
 ! A8    A(1,2,7)              111.7101         -DE/DX =    0.0                 !
 ! A9    A(1,2,8)              112.1027         -DE/DX =   -0.0005              !
 ! A10   A(6,2,7)              105.9671         -DE/DX =    0.001               !
 ! A11   A(6,2,8)              107.2864         -DE/DX =    0.0                 !
 ! A12   A(7,2,8)              108.4537         -DE/DX =   -0.0009              !
 ! D1    D(3,1,2,6)            -33.8967         -DE/DX =    0.0003              !
 ! D2    D(3,1,2,7)           -151.9487         -DE/DX =   -0.0013              !
 ! D3    D(3,1,2,8)             86.0847         -DE/DX =    0.0003              !
 ! D4    D(4,1,2,6)           -151.9483         -DE/DX =   -0.0013              !
 ! D5    D(4,1,2,7)             89.9997         -DE/DX =   -0.0028              !
 ! D6    D(4,1,2,8)            -31.9669         -DE/DX =   -0.0013              !
 ! D7    D(5,1,2,6)             86.0845         -DE/DX =    0.0003              !
 ! D8    D(5,1,2,7)            -31.9675         -DE/DX =   -0.0013              !
 ! D9    D(5,1,2,8)           -153.9341         -DE/DX =    0.0003              !
 --------------------------------------------------------------------------------
 Lowest energy point so far.  Saving SCF results.
 Summary of Optimized Potential Surface Scan (add -79.0 to energies):
                           1         2         3         4         5
     Eigenvalues --    -0.71040  -0.71011  -0.70933  -0.70821  -0.70703
           R1           1.52370   1.52418   1.52628   1.52931   1.53280
           R2           1.09929   1.09893   1.09862   1.09833   1.09813
           R3           1.09929   1.09923   1.09904   1.09876   1.09851
           R4           1.09929   1.09958   1.09966   1.09956   1.09928
           R5           1.09929   1.09891   1.09862   1.09833   1.09814
           R6           1.09929   1.09923   1.09904   1.09876   1.09851
           R7           1.09929   1.09959   1.09965   1.09956   1.09928
           A1         111.38451 111.74619 112.04001 112.25650 112.28202
           A2         111.38766 111.41738 111.51519 111.63568 111.75699
           A3         111.38507 111.07398 110.94276 110.96516 111.19938
           A4         107.49094 108.01202 108.37703 108.45829 108.22814
           A5         107.48961 107.47386 107.35501 107.21594 107.07171
           A6         107.49152 106.89212 106.35038 106.01121 105.98229
           A7         111.38507 111.74478 112.03988 112.25676 112.28326
           A8         111.38766 111.41741 111.51551 111.63527 111.75701
           A9         111.38451 111.07512 110.94325 110.96455 111.19861
           A10        107.49151 108.01191 108.37718 108.45874 108.22804
           A11        107.48961 107.47350 107.35503 107.21605 107.07163
           A12        107.49095 106.89287 106.34949 106.01143 105.98191
           D1          60.00273  51.86830  43.36260  34.05933  23.67508
           D2         -59.99915 -69.06540 -78.31898 -87.97067 -98.16295
           D3        -179.99994 171.87801 163.33051 154.01163 143.62357
           D4         -59.99805 -69.06650 -78.31865 -87.97019 -98.16218
           D5        -179.99993 169.99980 159.99977 149.99981 139.99978
           D6          59.99928  50.94321  41.64926  31.98210  21.78631
           D7        -179.99994 171.87864 163.33024 154.01173 143.62337
           D8          59.99818  50.94494  41.64866  31.98173  21.78533
           D9         -60.00261 -68.11164 -76.70185 -86.03598 -96.42814
                           6         7         8         9        10
     Eigenvalues --    -0.70612  -0.70578  -0.70612  -0.70703  -0.70821
           R1           1.53575   1.53695   1.53585   1.53296   1.52943
           R2           1.09811   1.09833   1.09874   1.09921   1.09955
           R3           1.09835   1.09835   1.09849   1.09872   1.09897
           R4           1.09884   1.09836   1.09803   1.09796   1.09812
           R5           1.09811   1.09833   1.09873   1.09921   1.09955
           R6           1.09835   1.09835   1.09849   1.09872   1.09897
           R7           1.09884   1.09836   1.09804   1.09797   1.09812
           A1         112.15579 111.87185 111.53114 111.21952 111.02734
           A2         111.83447 111.85755 111.83383 111.78649 111.71013
           A3         111.54874 111.92047 112.15615 112.21050 112.10276
           A4         107.68004 106.94811 106.30308 105.94789 105.96717
           A5         106.98442 106.97962 107.04848 107.16668 107.28649
           A6         106.31109 106.93767 107.64341 108.19311 108.45417
           A7         112.15645 111.87268 111.53181 111.21963 111.02796
           A8         111.83393 111.85742 111.83402 111.78596 111.71015
           A9         111.54788 111.92008 112.15599 112.21035 112.10266
           A10        107.68000 106.94765 106.30233 105.94777 105.96713
           A11        106.98452 106.97958 107.04861 107.16678 107.28642
           A12        106.31183 106.93783 107.64329 108.19374 108.45373
           D1          12.18266  -0.06997 -12.21502 -23.59318 -33.89667
           D2        -108.90879-120.03500-131.10740-141.79648-151.94866
           D3         132.17598 119.97962 107.84892  96.44173  86.08473
           D4        -108.90876-120.03511-131.10777-141.79691-151.94831
           D5         129.99979 119.99986 109.99985  99.99978  89.99970
           D6          11.08456   0.01447 -11.04383 -21.76200 -31.96691
           D7         132.17600 119.97935 107.84840  96.44163  86.08445
           D8          11.08455   0.01432 -11.04398 -21.76167 -31.96754
           D9        -107.83068-119.97106-132.08766-143.52346-153.93415
 Largest change from initial coordinates is atom    4       1.386 Angstoms.
 GradGradGradGradGradGradGradGradGradGradGradGradGradGradGradGradGradGrad

 Leave Link  103 at Thu Oct 15 06:20:08 2020, MaxMem=  1073741824 cpu:               0.1 elap:               0.0
 (Enter l202.exe)
                          Input orientation:                          
 ---------------------------------------------------------------------
 Center     Atomic      Atomic             Coordinates (Angstroms)
 Number     Number       Type             X           Y           Z
 ---------------------------------------------------------------------
      1          6           0        1.038823   -0.003977    0.099374
      2          6           0        2.568090   -0.006808    0.076991
      3          1           0        0.639919   -1.014777   -0.068455
      4          1           0        0.621697    0.622458   -0.701448
      5          1           0        0.640302    0.348769    1.059902
      6          1           0        2.967005   -0.943995    0.491188
      7          1           0        2.985216    0.799282    0.696631
      8          1           0        2.966609    0.095698   -0.941114
 ---------------------------------------------------------------------
                    Distance matrix (angstroms):
                    1          2          3          4          5
     1  C    0.000000
     2  C    1.529433   0.000000
     3  H    1.099549   2.180596   0.000000
     4  H    1.098967   2.188695   1.755434   0.000000
     5  H    1.098118   2.192924   1.769872   1.782584   0.000000
     6  H    2.180605   1.099551   2.394481   3.062127   2.721804
     7  H    2.188695   1.098967   3.062121   2.751747   2.415274
     8  H    2.192922   1.098117   2.721796   2.415270   3.078930
                    6          7          8
     6  H    0.000000
     7  H    1.755435   0.000000
     8  H    1.769873   1.782578   0.000000
 Stoichiometry    C2H6
 Framework group  C1[X(C2H6)]
 Deg. of freedom    18
 Full point group                 C1      NOp   1
 RotChk:  IX=1 Diff= 6.49D-15
 Largest Abelian subgroup         C1      NOp   1
 Largest concise Abelian subgroup C1      NOp   1
                         Standard orientation:                         
 ---------------------------------------------------------------------
 Center     Atomic      Atomic             Coordinates (Angstroms)
 Number     Number       Type             X           Y           Z
 ---------------------------------------------------------------------
      1          6           0        0.764711    0.003160    0.003372
      2          6           0       -0.764710   -0.003160    0.003372
      3          1           0        1.160477   -0.294363   -0.978390
      4          1           0        1.174211   -0.717141    0.725317
      5          1           0        1.173798    0.996063    0.232837
      6          1           0       -1.160487    0.294419   -0.978371
      7          1           0       -1.174210    0.717095    0.725363
      8          1           0       -1.173796   -0.996075    0.232784
 ---------------------------------------------------------------------
 Rotational constants (GHZ):          80.0833838          19.8929173          19.8056751
 Leave Link  202 at Thu Oct 15 06:20:08 2020, MaxMem=  1073741824 cpu:               0.1 elap:               0.0
 (Enter l601.exe)
 Copying SCF densities to generalized density rwf, IOpCl= 0 IROHF=0.

 **********************************************************************

            Population analysis using the SCF density.

 **********************************************************************

 Orbital symmetries:
       Occupied  (A) (A) (A) (A) (A) (A) (A) (A) (A)
       Virtual   (A) (A) (A) (A) (A) (A) (A) (A) (A) (A) (A) (A)
                 (A) (A) (A) (A) (A) (A) (A) (A) (A) (A) (A) (A)
                 (A) (A) (A) (A) (A) (A) (A) (A) (A) (A) (A) (A)
                 (A) (A) (A) (A) (A) (A) (A) (A) (A) (A) (A) (A)
                 (A)
 The electronic state is 1-A.
 Alpha  occ. eigenvalues --  -10.54003 -10.53984  -0.83546  -0.68885  -0.50016
 Alpha  occ. eigenvalues --   -0.49564  -0.42810  -0.40130  -0.39527
 Alpha virt. eigenvalues --    0.10645   0.15315   0.15660   0.15692   0.21796
 Alpha virt. eigenvalues --    0.21913   0.28092   0.45723   0.46046   0.47779
 Alpha virt. eigenvalues --    0.57791   0.59340   0.67990   0.70495   0.73646
 Alpha virt. eigenvalues --    0.73895   0.74506   0.75435   0.75498   0.80580
 Alpha virt. eigenvalues --    1.03268   1.15474   1.15851   1.41572   1.42642
 Alpha virt. eigenvalues --    1.59749   1.59874   1.77201   1.80418   1.80535
 Alpha virt. eigenvalues --    1.85014   1.85131   1.86290   1.86392   1.91275
 Alpha virt. eigenvalues --    2.09244   2.10872   2.25627   2.34970   2.36363
 Alpha virt. eigenvalues --    2.45245   2.60709   2.61530   2.63363   2.85701
 Alpha virt. eigenvalues --    2.92455   2.93929   3.02779   3.03651
          Condensed to atoms (all electrons):
               1          2          3          4          5          6
     1  C    4.588948   0.422301   0.399683   0.400671   0.401134  -0.026377
     2  C    0.422301   4.588951  -0.026378  -0.026537  -0.025465   0.399683
     3  H    0.399683  -0.026378   0.640686  -0.025234  -0.024248  -0.013791
     4  H    0.400671  -0.026537  -0.025234   0.636402  -0.023528   0.006666
     5  H    0.401134  -0.025465  -0.024248  -0.023528   0.632855  -0.000546
     6  H   -0.026377   0.399683  -0.013791   0.006666  -0.000546   0.640685
     7  H   -0.026537   0.400670   0.006666  -0.000490  -0.012857  -0.025234
     8  H   -0.025465   0.401133  -0.000546  -0.012857   0.006366  -0.024248
               7          8
     1  C   -0.026537  -0.025465
     2  C    0.400670   0.401133
     3  H    0.006666  -0.000546
     4  H   -0.000490  -0.012857
     5  H   -0.012857   0.006366
     6  H   -0.025234  -0.024248
     7  H    0.636403  -0.023528
     8  H   -0.023528   0.632856
 Mulliken charges:
               1
     1  C   -0.134357
     2  C   -0.134358
     3  H    0.043162
     4  H    0.044907
     5  H    0.046289
     6  H    0.043162
     7  H    0.044907
     8  H    0.046288
 Sum of Mulliken charges =  -0.00000
 Mulliken charges with hydrogens summed into heavy atoms:
               1
     1  C    0.000001
     2  C   -0.000001
 Electronic spatial extent (au):  <R**2>=            110.1786
 Charge=              0.0000 electrons
 Dipole moment (field-independent basis, Debye):
    X=              0.0000    Y=             -0.0000    Z=             -0.0175  Tot=              0.0175
 Quadrupole moment (field-independent basis, Debye-Ang):
   XX=            -15.3929   YY=            -14.7097   ZZ=            -14.8924
   XY=             -0.0056   XZ=              0.0000   YZ=              0.0000
 Traceless Quadrupole moment (field-independent basis, Debye-Ang):
   XX=             -0.3946   YY=              0.2887   ZZ=              0.1059
   XY=             -0.0056   XZ=              0.0000   YZ=              0.0000
 Octapole moment (field-independent basis, Debye-Ang**2):
  XXX=             -0.0000  YYY=             -0.0001  ZZZ=             -0.6754  XYY=              0.0000
  XXY=              0.0000  XXZ=              0.0039  XZZ=             -0.0000  YZZ=              0.0001
  YYZ=              0.6320  XYZ=             -0.0055
 Hexadecapole moment (field-independent basis, Debye-Ang**3):
 XXXX=            -94.1163 YYYY=            -29.0000 ZZZZ=            -28.9368 XXXY=              0.0128
 XXXZ=              0.0000 YYYX=              0.9550 YYYZ=             -0.0000 ZZZX=             -0.0001
 ZZZY=              0.0000 XXYY=            -19.2734 XXZZ=            -19.5368 YYZZ=             -9.6609
 XXYZ=             -0.0000 YYXZ=              0.0001 ZZXY=             -0.9483
 N-N= 4.205366339007D+01 E-N=-2.673877633673D+02  KE= 7.862857822984D+01
 No NMR shielding tensors so no spin-rotation constants.
 Leave Link  601 at Thu Oct 15 06:20:08 2020, MaxMem=  1073741824 cpu:               0.4 elap:               0.1
 (Enter l9999.exe)
 1\1\GINC-LEVIATHAN\Scan\RM062X\def2SVP\C2H6\ROBIDASR\15-Oct-2020\0\\#p 
 opt(modredundant) M062X/Def2SVP\\CalcUS\\0,1\C,1.0388227685,-0.0039765
 994,0.0993739202\C,2.5680897332,-0.0068078896,0.0769909412\H,0.6399191
 382,-1.0147768663,-0.068455283\H,0.6216969936,0.6224578016,-0.70144753
 81\H,0.6403020232,0.3487690723,1.0599020916\H,2.9670045257,-0.94399487
 73,0.4911880891\H,2.985216071,0.7992816348,0.6966313698\H,2.9666087466
 ,0.095697724,-0.9411135908\\Version=ES64L-G16RevA.03\State=1-A\HF=-79.
 7103953,-79.7101143,-79.7093307,-79.7082094,-79.7070288,-79.7061201,-7
 9.705778,-79.7061194,-79.7070266,-79.7082056\RMSD=2.889e-09,2.464e-09,
 4.218e-09,2.109e-09,1.197e-09,2.050e-09,1.673e-09,1.522e-09,1.263e-09,
 2.079e-09\PG=C01 [X(C2H6)]\\@


 IMAGINATION WILL OFTEN CARRY US TO WORLDS THAT NEVER WERE.
 BUT WITHOUT IT, WE GO NOWHERE. -- CARL SAGAN (COSMOS)
 Job cpu time:       0 days  0 hours  8 minutes 16.7 seconds.
 Elapsed time:       0 days  0 hours  1 minutes 22.7 seconds.
 File lengths (MBytes):  RWF=      6 Int=      0 D2E=      0 Chk=      2 Scr=      1
 Normal termination of Gaussian 16 at Thu Oct 15 06:20:10 2020.
