 Entering Gaussian System, Link 0=g16
 Input=calc.com
 Output=calc.log
 Initial command:
 /binaries/g16/l1.exe "/calcus/scratch/scr/28/Gau-162.inp" -scrdir="/calcus/scratch/scr/28/"
 Entering Link 1 = /binaries/g16/l1.exe PID=       164.
  
 Copyright (c) 1988-2019, Gaussian, Inc.  All Rights Reserved.
  
 This is part of the Gaussian(R) 16 program.  It is based on
 the Gaussian(R) 09 system (copyright 2009, Gaussian, Inc.),
 the Gaussian(R) 03 system (copyright 2003, Gaussian, Inc.),
 the Gaussian(R) 98 system (copyright 1998, Gaussian, Inc.),
 the Gaussian(R) 94 system (copyright 1995, Gaussian, Inc.),
 the Gaussian 92(TM) system (copyright 1992, Gaussian, Inc.),
 the Gaussian 90(TM) system (copyright 1990, Gaussian, Inc.),
 the Gaussian 88(TM) system (copyright 1988, Gaussian, Inc.),
 the Gaussian 86(TM) system (copyright 1986, Carnegie Mellon
 University), and the Gaussian 82(TM) system (copyright 1983,
 Carnegie Mellon University). Gaussian is a federally registered
 trademark of Gaussian, Inc.
  
 This software contains proprietary and confidential information,
 including trade secrets, belonging to Gaussian, Inc.
  
 This software is provided under written license and may be
 used, copied, transmitted, or stored only in accord with that
 written license.
  
 The following legend is applicable only to US Government
 contracts under FAR:
  
                    RESTRICTED RIGHTS LEGEND
  
 Use, reproduction and disclosure by the US Government is
 subject to restrictions as set forth in subparagraphs (a)
 and (c) of the Commercial Computer Software - Restricted
 Rights clause in FAR 52.227-19.
  
 Gaussian, Inc.
 340 Quinnipiac St., Bldg. 40, Wallingford CT 06492
  
  
 ---------------------------------------------------------------
 Warning -- This program may not be used in any manner that
 competes with the business of Gaussian, Inc. or will provide
 assistance to any competitor of Gaussian, Inc.  The licensee
 of this program is prohibited from giving any competitor of
 Gaussian, Inc. access to this program.  By using this program,
 the user acknowledges that Gaussian, Inc. is engaged in the
 business of creating and licensing software in the field of
 computational chemistry and represents and warrants to the
 licensee that it is not a competitor of Gaussian, Inc. and that
 it will not use this program in any manner prohibited above.
 ---------------------------------------------------------------
  

 Cite this work as:
 Gaussian 16, Revision C.01,
 M. J. Frisch, G. W. Trucks, H. B. Schlegel, G. E. Scuseria, 
 M. A. Robb, J. R. Cheeseman, G. Scalmani, V. Barone, 
 G. A. Petersson, H. Nakatsuji, X. Li, M. Caricato, A. V. Marenich, 
 J. Bloino, B. G. Janesko, R. Gomperts, B. Mennucci, H. P. Hratchian, 
 J. V. Ortiz, A. F. Izmaylov, J. L. Sonnenberg, D. Williams-Young, 
 F. Ding, F. Lipparini, F. Egidi, J. Goings, B. Peng, A. Petrone, 
 T. Henderson, D. Ranasinghe, V. G. Zakrzewski, J. Gao, N. Rega, 
 G. Zheng, W. Liang, M. Hada, M. Ehara, K. Toyota, R. Fukuda, 
 J. Hasegawa, M. Ishida, T. Nakajima, Y. Honda, O. Kitao, H. Nakai, 
 T. Vreven, K. Throssell, J. A. Montgomery, Jr., J. E. Peralta, 
 F. Ogliaro, M. J. Bearpark, J. J. Heyd, E. N. Brothers, K. N. Kudin, 
 V. N. Staroverov, T. A. Keith, R. Kobayashi, J. Normand, 
 K. Raghavachari, A. P. Rendell, J. C. Burant, S. S. Iyengar, 
 J. Tomasi, M. Cossi, J. M. Millam, M. Klene, C. Adamo, R. Cammi, 
 J. W. Ochterski, R. L. Martin, K. Morokuma, O. Farkas, 
 J. B. Foresman, and D. J. Fox, Gaussian, Inc., Wallingford CT, 2019.
 
 ******************************************
 Gaussian 16:  ES64L-G16RevC.01  3-Jul-2019
                 5-Sep-2022 
 ******************************************
 %chk=in.chk
 %nproc=1
 Will use up to    1 processors via shared memory.
 %mem=2000MB
 ----------
 #p opt AM1
 ----------
 1/18=20,19=15,26=1,38=1/1,3;
 2/9=110,12=2,17=6,18=5,40=1/2;
 3/5=2,25=1,41=700000,71=1/1,2,3;
 4/35=1/1;
 5/5=2,35=1,38=5/2;
 6/7=2,8=2,9=2,10=2,28=1/1;
 7//1,2,3,16;
 1/18=20,19=15,26=1/3(2);
 2/9=110/2;
 99//99;
 2/9=110/2;
 3/5=2,25=1,41=700000,71=1,135=20/1,2,3;
 4/5=5,16=3,35=1/1;
 5/5=2,35=1,38=5/2;
 7//1,2,3,16;
 1/18=20,19=15,26=1/3(-5);
 2/9=110/2;
 6/7=2,8=2,9=2,10=2,19=2,28=1/1;
 99/9=1/99;
 Leave Link    1 at Mon Sep  5 10:35:30 2022, MaxMem=   262144000 cpu:               0.0 elap:               0.0
 (Enter /binaries/g16/l101.exe)
 -----------------------
 File created by ccinput
 -----------------------
 Symbolic Z-matrix:
 Charge =  0 Multiplicity = 1
 C                     4.2918    3.6588    0. 
 H                     4.6485    2.65      0. 
 H                     4.6485    4.1632    0.8707 
 H                     4.6485    4.1632   -0.8797 
 H                     3.2218    3.6588    0. 
 
 ITRead=  0  0  0  0  0
 MicOpt= -1 -1 -1 -1 -1
 NAtoms=      5 NQM=        5 NQMF=       0 NMMI=      0 NMMIF=      0
                NMic=       0 NMicF=      0.
                    Isotopes and Nuclear Properties:
 (Nuclear quadrupole moments (NQMom) in fm**2, nuclear magnetic moments (NMagM)
  in nuclear magnetons)

  Atom         1           2           3           4           5
 IAtWgt=          12           1           1           1           1
 AtmWgt=  12.0000000   1.0078250   1.0078250   1.0078250   1.0078250
 NucSpn=           0           1           1           1           1
 AtZEff=  -0.0000000  -0.0000000  -0.0000000  -0.0000000  -0.0000000
 NQMom=    0.0000000   0.0000000   0.0000000   0.0000000   0.0000000
 NMagM=    0.0000000   2.7928460   2.7928460   2.7928460   2.7928460
 AtZNuc=   6.0000000   1.0000000   1.0000000   1.0000000   1.0000000
 Leave Link  101 at Mon Sep  5 10:35:30 2022, MaxMem=   262144000 cpu:               0.0 elap:               0.1
 (Enter /binaries/g16/l103.exe)

 GradGradGradGradGradGradGradGradGradGradGradGradGradGradGradGradGradGrad
 Berny optimization.
 Initialization pass.
                           ----------------------------
                           !    Initial Parameters    !
                           ! (Angstroms and Degrees)  !
 --------------------------                            --------------------------
 ! Name  Definition              Value          Derivative Info.                !
 --------------------------------------------------------------------------------
 ! R1    R(1,2)                  1.07           estimate D2E/DX2                !
 ! R2    R(1,3)                  1.0676         estimate D2E/DX2                !
 ! R3    R(1,4)                  1.075          estimate D2E/DX2                !
 ! R4    R(1,5)                  1.07           estimate D2E/DX2                !
 ! A1    A(2,1,3)              109.5151         estimate D2E/DX2                !
 ! A2    A(2,1,4)              109.3762         estimate D2E/DX2                !
 ! A3    A(2,1,5)              109.473          estimate D2E/DX2                !
 ! A4    A(3,1,4)              109.5644         estimate D2E/DX2                !
 ! A5    A(3,1,5)              109.5186         estimate D2E/DX2                !
 ! A6    A(4,1,5)              109.3798         estimate D2E/DX2                !
 ! D1    D(2,1,4,3)           -120.0525         estimate D2E/DX2                !
 ! D2    D(2,1,5,3)            120.0839         estimate D2E/DX2                !
 ! D3    D(2,1,5,4)           -119.829          estimate D2E/DX2                !
 ! D4    D(3,1,5,4)            120.0871         estimate D2E/DX2                !
 --------------------------------------------------------------------------------
 Trust Radius=3.00D-01 FncErr=1.00D-07 GrdErr=1.00D-07 EigMax=2.50D+02 EigMin=1.00D-04
 Number of steps in this run=     24 maximum allowed number of steps=    100.
 GradGradGradGradGradGradGradGradGradGradGradGradGradGradGradGradGradGrad

 Leave Link  103 at Mon Sep  5 10:35:30 2022, MaxMem=   262144000 cpu:               0.0 elap:               0.0
 (Enter /binaries/g16/l202.exe)
                          Input orientation:                          
 ---------------------------------------------------------------------
 Center     Atomic      Atomic             Coordinates (Angstroms)
 Number     Number       Type             X           Y           Z
 ---------------------------------------------------------------------
      1          6           0        4.291800    3.658800    0.000000
      2          1           0        4.648500    2.650000    0.000000
      3          1           0        4.648500    4.163200    0.870700
      4          1           0        4.648500    4.163200   -0.879700
      5          1           0        3.221800    3.658800    0.000000
 ---------------------------------------------------------------------
                    Distance matrix (angstroms):
                    1          2          3          4          5
     1  C    0.000000
     2  H    1.070006   0.000000
     3  H    1.067601   1.745822   0.000000
     4  H    1.074954   1.750327   1.750400   0.000000
     5  H    1.070000   1.747327   1.745855   1.750361   0.000000
 Stoichiometry    CH4
 Framework group  C1[X(CH4)]
 Deg. of freedom     9
 Full point group                 C1      NOp   1
 Largest Abelian subgroup         C1      NOp   1
 Largest concise Abelian subgroup C1      NOp   1
                         Standard orientation:                         
 ---------------------------------------------------------------------
 Center     Atomic      Atomic             Coordinates (Angstroms)
 Number     Number       Type             X           Y           Z
 ---------------------------------------------------------------------
      1          6           0       -0.000767    0.000001    0.000472
      2          1           0       -0.325680   -0.869163   -0.532348
      3          1           0       -0.412253   -0.010991    0.985525
      4          1           0        1.072605    0.002075    0.058743
      5          1           0       -0.330072    0.878070   -0.514750
 ---------------------------------------------------------------------
 Rotational constants (GHZ):         164.4303219         163.9529333         163.7655362
 Leave Link  202 at Mon Sep  5 10:35:30 2022, MaxMem=   262144000 cpu:               0.0 elap:               0.0
 (Enter /binaries/g16/l301.exe)
 Standard basis: VSTO-6G (5D, 7F)
 Ernie: Thresh=  0.10000D-02 Tol=  0.10000D-05 Strict=F.
  NNHCO=     0 NNPyr=     0 NCTC=     0               EPep=         0.000000000
    EC=         6.919995759  ECS=         0.582582337   EG=         0.068208026
   EHC=         0.000000000  EAt=        -6.115142680  AtH=         0.604449838
 EPDDG=         0.000000000  ECC=         7.570786122 EAtT=         6.719592518
 There are     8 symmetry adapted cartesian basis functions of A   symmetry.
 There are     8 symmetry adapted basis functions of A   symmetry.
     8 basis functions,    48 primitive gaussians,     8 cartesian basis functions
     4 alpha electrons        4 beta electrons
       nuclear repulsion energy        14.2903786404 Hartrees.
 IExCor=    0 DFT=F Ex=HF Corr=None ExCW=0 ScaHFX=  1.000000
 ScaDFX=  1.000000  1.000000  1.000000  1.000000 ScalE2=  1.000000  1.000000
 IRadAn=      5 IRanWt=     -1 IRanGd=            0 ICorTp=0 IEmpDi=  4
 Integral buffers will be    131072 words long.
 Regular integral format.
 Two-electron integral symmetry is turned off.
 Leave Link  301 at Mon Sep  5 10:35:30 2022, MaxMem=   262144000 cpu:               0.0 elap:               0.0
 (Enter /binaries/g16/l302.exe)
 Do NDO integrals.
 NPDir=0 NMtPBC=     1 NCelOv=     1 NCel=       1 NClECP=     1 NCelD=      1
         NCelK=      1 NCelE2=     1 NClLst=     1 CellRange=     0.0.
 One-electron integrals computed using PRISM.
 NBasis=     8 RedAO= F EigKep=  0.00D+00  NBF=     8
 NBsUse=     8 1.00D-04 EigRej=  0.00D+00 NBFU=     8
 Leave Link  302 at Mon Sep  5 10:35:30 2022, MaxMem=   262144000 cpu:               0.0 elap:               0.0
 (Enter /binaries/g16/l303.exe)
 DipDrv:  MaxL=1.
 Leave Link  303 at Mon Sep  5 10:35:30 2022, MaxMem=   262144000 cpu:               0.0 elap:               0.0
 (Enter /binaries/g16/l401.exe)
 Simple Huckel Guess.
 JPrj=0 DoOrth=F DoCkMO=F.
 Leave Link  401 at Mon Sep  5 10:35:30 2022, MaxMem=   262144000 cpu:               0.0 elap:               0.0
 (Enter /binaries/g16/l502.exe)
 Keep J ints in memory in canonical form, NReq=859348.
 FoFCou: FMM=F IPFlag=           0 FMFlag=           0 FMFlg1=           0
         NFxFlg=           0 DoJE=F BraDBF=F KetDBF=F FulRan=T
         wScrn=  0.000000 ICntrl=       600 IOpCl=  2 I1Cent=           0 NGrid=           0
         NMat0=    1 NMatS0=     14 NMatT0=    0 NMatD0=    1 NMtDS0=    0 NMtDT0=    0
 Symmetry not used in FoFCou.
 Two-electron integral symmetry not used.
 Closed shell SCF:
 Using DIIS extrapolation, IDIIS=  1040.
 Overlap will be assumed to be unity.
 NGot=   262144000 LenX=   262083483 LenY=   262082601
 Requested convergence on RMS density matrix=1.00D-08 within 128 cycles.
 Requested convergence on MAX density matrix=1.00D-06.
 Requested convergence on             energy=1.00D-06.
 No special actions if energy rises.

 Cycle   1  Pass 1  IDiag  1:
 E= 0.452729332967827E-01
 DIIS: error= 4.04D-02 at cycle   1 NSaved=   1.
 NSaved= 1 IEnMin= 1 EnMin= 0.452729332967827E-01 IErMin= 1 ErrMin= 4.04D-02
 ErrMax= 4.04D-02  0.00D+00 EMaxC= 1.00D-01 BMatC= 2.62D-02 BMatP= 2.62D-02
 IDIUse=3 WtCom= 5.96D-01 WtEn= 4.04D-01
 Coeff-Com:  0.100D+01
 Coeff-En:   0.100D+01
 Coeff:      0.100D+01
 GapD=    2.000 DampG=2.000 DampE=0.500 DampFc=1.0000 IDamp=-1.
 RMSDP=2.26D-02 MaxDP=1.27D-01              OVMax= 0.00D+00

 Cycle   2  Pass 1  IDiag  1:
 E=-0.609907068839100E-02 Delta-E=       -0.051372003985 Rises=F Damp=F
 DIIS: error= 9.25D-03 at cycle   2 NSaved=   2.
 NSaved= 2 IEnMin= 2 EnMin=-0.609907068839100E-02 IErMin= 2 ErrMin= 9.25D-03
 ErrMax= 9.25D-03  0.00D+00 EMaxC= 1.00D-01 BMatC= 1.39D-03 BMatP= 2.62D-02
 IDIUse=3 WtCom= 9.08D-01 WtEn= 9.25D-02
 Coeff-Com: -0.298D+00 0.130D+01
 Coeff-En:   0.000D+00 0.100D+01
 Coeff:     -0.270D+00 0.127D+01
 RMSDP=6.60D-03 MaxDP=3.57D-02 DE=-5.14D-02 OVMax= 0.00D+00

 Cycle   3  Pass 1  IDiag  3:
 E=-0.894858455685110E-02 Delta-E=       -0.002849513868 Rises=F Damp=F
 DIIS: error= 3.66D-04 at cycle   3 NSaved=   3.
 NSaved= 3 IEnMin= 3 EnMin=-0.894858455685110E-02 IErMin= 3 ErrMin= 3.66D-04
 ErrMax= 3.66D-04  0.00D+00 EMaxC= 1.00D-01 BMatC= 2.83D-06 BMatP= 1.39D-03
 IDIUse=3 WtCom= 9.96D-01 WtEn= 3.66D-03
 Coeff-Com:  0.291D+00-0.131D+01 0.202D+01
 Coeff-En:   0.000D+00 0.000D+00 0.100D+01
 Coeff:      0.290D+00-0.131D+01 0.202D+01
 Gap=     0.672 Goal=   None    Shift=    0.000
 RMSDP=7.89D-04 MaxDP=2.57D-03 DE=-2.85D-03 OVMax= 2.55D-03

 Cycle   4  Pass 1  IDiag  3:
 E=-0.896292349164618E-02 Delta-E=       -0.000014338935 Rises=F Damp=F
 DIIS: error= 1.48D-05 at cycle   4 NSaved=   4.
 NSaved= 4 IEnMin= 4 EnMin=-0.896292349164618E-02 IErMin= 4 ErrMin= 1.48D-05
 ErrMax= 1.48D-05  0.00D+00 EMaxC= 1.00D-01 BMatC= 2.69D-09 BMatP= 2.83D-06
 IDIUse=1 WtCom= 1.00D+00 WtEn= 0.00D+00
 Coeff-Com: -0.362D-02 0.179D-01-0.327D-01 0.102D+01
 Coeff:     -0.362D-02 0.179D-01-0.327D-01 0.102D+01
 Gap=     0.673 Goal=   None    Shift=    0.000
 RMSDP=9.48D-06 MaxDP=5.05D-05 DE=-1.43D-05 OVMax= 5.17D-05

 Cycle   5  Pass 1  IDiag  3:
 E=-0.896292896141659E-02 Delta-E=       -0.000000005470 Rises=F Damp=F
 DIIS: error= 5.64D-07 at cycle   5 NSaved=   5.
 NSaved= 5 IEnMin= 5 EnMin=-0.896292896141659E-02 IErMin= 5 ErrMin= 5.64D-07
 ErrMax= 5.64D-07  0.00D+00 EMaxC= 1.00D-01 BMatC= 7.88D-12 BMatP= 2.69D-09
 IDIUse=1 WtCom= 1.00D+00 WtEn= 0.00D+00
 Coeff-Com:  0.375D-02-0.175D-01 0.288D-01-0.362D+00 0.135D+01
 Coeff:      0.375D-02-0.175D-01 0.288D-01-0.362D+00 0.135D+01
 Gap=     0.673 Goal=   None    Shift=    0.000
 RMSDP=7.38D-07 MaxDP=1.62D-06 DE=-5.47D-09 OVMax= 0.00D+00

 Cycle   6  Pass 1  IDiag  3:
 E=-0.896292898503859E-02 Delta-E=       -0.000000000024 Rises=F Damp=F
 DIIS: error= 1.82D-07 at cycle   6 NSaved=   6.
 NSaved= 6 IEnMin= 6 EnMin=-0.896292898503859E-02 IErMin= 6 ErrMin= 1.82D-07
 ErrMax= 1.82D-07  0.00D+00 EMaxC= 1.00D-01 BMatC= 6.70D-13 BMatP= 7.88D-12
 IDIUse=1 WtCom= 1.00D+00 WtEn= 0.00D+00
 Coeff-Com: -0.756D-03 0.382D-02-0.715D-02 0.231D+00-0.933D+00 0.171D+01
 Coeff:     -0.756D-03 0.382D-02-0.715D-02 0.231D+00-0.933D+00 0.171D+01
 Gap=     0.673 Goal=   None    Shift=    0.000
 RMSDP=2.69D-07 MaxDP=7.65D-07 DE=-2.36D-11 OVMax= 7.82D-07

 Cycle   7  Pass 1  IDiag  3:
 E=-0.896292898716844E-02 Delta-E=       -0.000000000002 Rises=F Damp=F
 DIIS: error= 3.48D-08 at cycle   7 NSaved=   7.
 NSaved= 7 IEnMin= 7 EnMin=-0.896292898716844E-02 IErMin= 7 ErrMin= 3.48D-08
 ErrMax= 3.48D-08  0.00D+00 EMaxC= 1.00D-01 BMatC= 1.69D-14 BMatP= 6.70D-13
 IDIUse=1 WtCom= 1.00D+00 WtEn= 0.00D+00
 Coeff-Com:  0.251D-03-0.131D-02 0.260D-02-0.101D+00 0.409D+00-0.756D+00
 Coeff-Com:  0.145D+01
 Coeff:      0.251D-03-0.131D-02 0.260D-02-0.101D+00 0.409D+00-0.756D+00
 Coeff:      0.145D+01
 Gap=     0.673 Goal=   None    Shift=    0.000
 RMSDP=3.18D-08 MaxDP=1.65D-07 DE=-2.13D-12 OVMax= 1.68D-07

 Cycle   8  Pass 1  IDiag  3:
 E=-0.896292898719508E-02 Delta-E=       -0.000000000000 Rises=F Damp=F
 DIIS: error= 1.05D-08 at cycle   8 NSaved=   8.
 NSaved= 8 IEnMin= 8 EnMin=-0.896292898719508E-02 IErMin= 8 ErrMin= 1.05D-08
 ErrMax= 1.05D-08  0.00D+00 EMaxC= 1.00D-01 BMatC= 1.73D-15 BMatP= 1.69D-14
 IDIUse=1 WtCom= 1.00D+00 WtEn= 0.00D+00
 Coeff-Com: -0.584D-05 0.590D-04-0.193D-03 0.170D-01-0.688D-01 0.127D+00
 Coeff-Com: -0.359D+00 0.128D+01
 Coeff:     -0.584D-05 0.590D-04-0.193D-03 0.170D-01-0.688D-01 0.127D+00
 Coeff:     -0.359D+00 0.128D+01
 Gap=     0.673 Goal=   None    Shift=    0.000
 RMSDP=7.69D-09 MaxDP=4.10D-08 DE=-2.66D-14 OVMax= 4.19D-08

 Cycle   9  Pass 2  IDiag  1:
 SCF Done:  E(RAM1) = -0.896292898720E-02 A.U. after    9 cycles
            NFock=  8  Conv=0.77D-08     -V/T= 0.9991
 KE=-9.923828799827D+00 PE=-1.351118057988D+01 EE= 9.135667810355D+00
 Leave Link  502 at Mon Sep  5 10:35:30 2022, MaxMem=   262144000 cpu:               0.0 elap:               0.0
 (Enter /binaries/g16/l601.exe)
 Copying SCF densities to generalized density rwf, IOpCl= 0 IROHF=0.

 **********************************************************************

            Population analysis using the SCF Density.

 **********************************************************************

 Orbital symmetries:
       Occupied  (A) (A) (A) (A)
       Virtual   (A) (A) (A) (A)
 The electronic state is 1-A.
 Alpha  occ. eigenvalues --   -1.09135  -0.49733  -0.49693  -0.49623
 Alpha virt. eigenvalues --    0.17640   0.17713   0.17752   0.20334
          Condensed to atoms (all electrons):
               1          2          3          4          5
     1  C    4.258397   0.000000   0.000000   0.000000   0.000000
     2  H    0.000000   0.935473   0.000000   0.000000   0.000000
     3  H    0.000000   0.000000   0.935243   0.000000   0.000000
     4  H    0.000000   0.000000   0.000000   0.935423   0.000000
     5  H    0.000000   0.000000   0.000000   0.000000   0.935464
 Mulliken charges:
               1
     1  C   -0.258397
     2  H    0.064527
     3  H    0.064757
     4  H    0.064577
     5  H    0.064536
 Sum of Mulliken charges =  -0.00000
 Mulliken charges with hydrogens summed into heavy atoms:
               1
     1  C   -0.000000
 Charge=             -0.0000 electrons
 Dipole moment (field-independent basis, Debye):
    X=              0.0008    Y=             -0.0000    Z=             -0.0007  Tot=              0.0011
 N-N= 1.429037864037D+01 E-N=-1.351118053997D+01  KE=-9.923828799827D+00
 Leave Link  601 at Mon Sep  5 10:35:30 2022, MaxMem=   262144000 cpu:               0.0 elap:               0.0
 (Enter /binaries/g16/l701.exe)
 ... and contract with generalized density number  0.
 Compute integral first derivatives.
 Leave Link  701 at Mon Sep  5 10:35:31 2022, MaxMem=   262144000 cpu:               0.0 elap:               0.0
 (Enter /binaries/g16/l702.exe)
 L702 exits ... SP integral derivatives will be done elsewhere.
 Leave Link  702 at Mon Sep  5 10:35:31 2022, MaxMem=   262144000 cpu:               0.0 elap:               0.0
 (Enter /binaries/g16/l703.exe)
 Integral derivatives from FoFJK, PRISM(SPDF).
 Compute integral first derivatives, UseDBF=F ICtDFT=           0.
 Calling FoFJK, ICntrl=      2127 FMM=F ISym2X=0 I1Cent= 0 IOpClX= 0 NMat=1 NMatS=1 NMatT=0.
 FoFJK:  IHMeth= 8 ICntrl=    2127 DoSepK=F KAlg= 0 I1Cent=           0 FoldK=F
 IRaf=         0 NMat=       1 IRICut=       1 DoRegI=T DoRafI=F ISym2E= 0 IDoP0=3 IntGTp=3.
 FoFCou: FMM=F IPFlag=           0 FMFlag=      100000 FMFlg1=         800
         NFxFlg=           0 DoJE=F BraDBF=F KetDBF=F FulRan=T
         wScrn=  0.000000 ICntrl=      2127 IOpCl=  0 I1Cent=           0 NGrid=           0
         NMat0=    1 NMatS0=      1 NMatT0=    0 NMatD0=    1 NMtDS0=    0 NMtDT0=    0
 Symmetry not used in FoFCou.
 Leave Link  703 at Mon Sep  5 10:35:31 2022, MaxMem=   262144000 cpu:               0.0 elap:               0.0
 (Enter /binaries/g16/l716.exe)
 Dipole        = 3.24043308D-04-2.85092585D-06-2.93570403D-04
 ***** Axes restored to original set *****
 -------------------------------------------------------------------
 Center     Atomic                   Forces (Hartrees/Bohr)
 Number     Number              X              Y              Z
 -------------------------------------------------------------------
      1        6           0.000515854    0.000715891   -0.004261023
      2        1           0.011382394   -0.032128215   -0.000037722
      3        1           0.012049670    0.017045580    0.029095296
      4        1           0.010137481    0.014341509   -0.024758843
      5        1          -0.034085398    0.000025235   -0.000037709
 -------------------------------------------------------------------
 Cartesian Forces:  Max     0.034085398 RMS     0.017409316
 Leave Link  716 at Mon Sep  5 10:35:31 2022, MaxMem=   262144000 cpu:               0.0 elap:               0.0
 (Enter /binaries/g16/l103.exe)

 GradGradGradGradGradGradGradGradGradGradGradGradGradGradGradGradGradGrad
 Berny optimization.
 FormGI is forming the generalized inverse of G from B-inverse, IUseBI=4.
 Internal  Forces:  Max     0.035808478 RMS     0.017982771
 Search for a local minimum.
 Step number   1 out of a maximum of   24
 All quantities printed in internal units (Hartrees-Bohrs-Radians)
 RMS Force = .17983D-01 SwitMx=.10000D-02 MixMth= 1
 Mixed Optimization -- RFO/linear search
 Second derivative matrix not updated -- first step.
 The second derivative matrix:
                          R1        R2        R3        R4        A1
           R1           0.37229
           R2           0.00000   0.37535
           R3           0.00000   0.00000   0.36611
           R4           0.00000   0.00000   0.00000   0.37230
           A1           0.00000   0.00000   0.00000   0.00000   0.16000
           A2           0.00000   0.00000   0.00000   0.00000   0.00000
           A3           0.00000   0.00000   0.00000   0.00000   0.00000
           A4           0.00000   0.00000   0.00000   0.00000   0.00000
           A5           0.00000   0.00000   0.00000   0.00000   0.00000
           A6           0.00000   0.00000   0.00000   0.00000   0.00000
           D1           0.00000   0.00000   0.00000   0.00000   0.00000
           D2           0.00000   0.00000   0.00000   0.00000   0.00000
           D3           0.00000   0.00000   0.00000   0.00000   0.00000
           D4           0.00000   0.00000   0.00000   0.00000   0.00000
                          A2        A3        A4        A5        A6
           A2           0.16000
           A3           0.00000   0.16000
           A4           0.00000   0.00000   0.16000
           A5           0.00000   0.00000   0.00000   0.16000
           A6           0.00000   0.00000   0.00000   0.00000   0.16000
           D1           0.00000   0.00000   0.00000   0.00000   0.00000
           D2           0.00000   0.00000   0.00000   0.00000   0.00000
           D3           0.00000   0.00000   0.00000   0.00000   0.00000
           D4           0.00000   0.00000   0.00000   0.00000   0.00000
                          D1        D2        D3        D4
           D1           0.00434
           D2           0.00000   0.00499
           D3           0.00000   0.00000   0.00499
           D4           0.00000   0.00000   0.00000   0.00499
 ITU=  0
     Eigenvalues ---    0.05257   0.05901   0.08731   0.16000   0.16000
     Eigenvalues ---    0.36611   0.37229   0.37230   0.37535
 RFO step:  Lambda=-1.18002931D-02 EMin= 5.25714373D-02
 Linear search not attempted -- first point.
 Iteration  1 RMS(Cart)=  0.04686379 RMS(Int)=  0.00002873
 Iteration  2 RMS(Cart)=  0.00002051 RMS(Int)=  0.00000017
 Iteration  3 RMS(Cart)=  0.00000000 RMS(Int)=  0.00000017
 ITry= 1 IFail=0 DXMaxC= 8.88D-02 DCOld= 1.00D+10 DXMaxT= 3.00D-01 DXLimC= 3.00D+00 Rises=F
 Variable       Old X    -DE/DX   Delta X   Delta X   Delta X     New X
                                 (Linear)    (Quad)   (Total)
    R1        2.02202   0.03408   0.00000   0.08874   0.08874   2.11076
    R2        2.01747   0.03581   0.00000   0.09249   0.09249   2.10997
    R3        2.03137   0.03036   0.00000   0.08032   0.08032   2.11169
    R4        2.02201   0.03409   0.00000   0.08874   0.08874   2.11075
    A1        1.91140   0.00003   0.00000   0.00045   0.00045   1.91185
    A2        1.90898  -0.00000   0.00000   0.00002   0.00002   1.90899
    A3        1.91066   0.00001   0.00000   0.00045   0.00045   1.91112
    A4        1.91226  -0.00014   0.00000  -0.00149  -0.00149   1.91077
    A5        1.91146   0.00008   0.00000   0.00052   0.00052   1.91198
    A6        1.90904   0.00003   0.00000   0.00005   0.00005   1.90909
    D1       -2.09531   0.00005   0.00000   0.00035   0.00035  -2.09496
    D2        2.09586   0.00009   0.00000   0.00115   0.00115   2.09701
    D3       -2.09141  -0.00002   0.00000  -0.00033  -0.00033  -2.09174
    D4        2.09592  -0.00011   0.00000  -0.00148  -0.00148   2.09444
         Item               Value     Threshold  Converged?
 Maximum Force            0.035808     0.000450     NO 
 RMS     Force            0.017983     0.000300     NO 
 Maximum Displacement     0.088827     0.001800     NO 
 RMS     Displacement     0.046864     0.001200     NO 
 Predicted change in Energy=-6.081654D-03
 Lowest energy point so far.  Saving SCF results.
 GradGradGradGradGradGradGradGradGradGradGradGradGradGradGradGradGradGrad

 Leave Link  103 at Mon Sep  5 10:35:31 2022, MaxMem=   262144000 cpu:               0.0 elap:               0.0
 (Enter /binaries/g16/l202.exe)
                          Input orientation:                          
 ---------------------------------------------------------------------
 Center     Atomic      Atomic             Coordinates (Angstroms)
 Number     Number       Type             X           Y           Z
 ---------------------------------------------------------------------
      1          6           0        4.291754    3.658760   -0.000910
      2          1           0        4.664360    2.605775   -0.001122
      3          1           0        4.665283    4.186906    0.909152
      4          1           0        4.662908    4.183563   -0.914989
      5          1           0        3.174795    3.658997   -0.001131
 ---------------------------------------------------------------------
                    Distance matrix (angstroms):
                    1          2          3          4          5
     1  C    0.000000
     2  H    1.116965   0.000000
     3  H    1.116546   1.824438   0.000000
     4  H    1.117459   1.823341   1.824146   0.000000
     5  H    1.116960   1.824303   1.824517   1.823400   0.000000
 Stoichiometry    CH4
 Framework group  C1[X(CH4)]
 Deg. of freedom     9
 Full point group                 C1      NOp   1
 RotChk:  IX=3 Diff= 1.58D+00
 Largest Abelian subgroup         C1      NOp   1
 Largest concise Abelian subgroup C1      NOp   1
                         Standard orientation:                         
 ---------------------------------------------------------------------
 Center     Atomic      Atomic             Coordinates (Angstroms)
 Number     Number       Type             X           Y           Z
 ---------------------------------------------------------------------
      1          6           0       -0.000337    0.000053   -0.000289
      2          1           0        0.297287   -0.926941   -0.547751
      3          1           0       -1.112581    0.097648   -0.008247
      4          1           0        0.360847   -0.060738    1.055442
      5          1           0        0.456468    0.889715   -0.497712
 ---------------------------------------------------------------------
 Rotational constants (GHZ):         150.7768567         150.7426389         150.6401543
 Leave Link  202 at Mon Sep  5 10:35:31 2022, MaxMem=   262144000 cpu:               0.0 elap:               0.0
 (Enter /binaries/g16/l301.exe)
 Standard basis: VSTO-6G (5D, 7F)
 Ernie: Thresh=  0.10000D-02 Tol=  0.10000D-05 Strict=F.
  NNHCO=     0 NNPyr=     0 NCTC=     0               EPep=         0.000000000
    EC=         6.766723909  ECS=         0.500979760   EG=         0.066343118
   EHC=         0.000000000  EAt=        -6.115142680  AtH=         0.604449838
 EPDDG=         0.000000000  ECC=         7.334046788 EAtT=         6.719592518
 There are     8 symmetry adapted cartesian basis functions of A   symmetry.
 There are     8 symmetry adapted basis functions of A   symmetry.
     8 basis functions,    48 primitive gaussians,     8 cartesian basis functions
     4 alpha electrons        4 beta electrons
       nuclear repulsion energy        14.0536393060 Hartrees.
 IExCor=    0 DFT=F Ex=HF Corr=None ExCW=0 ScaHFX=  1.000000
 ScaDFX=  1.000000  1.000000  1.000000  1.000000 ScalE2=  1.000000  1.000000
 IRadAn=      5 IRanWt=     -1 IRanGd=            0 ICorTp=0 IEmpDi=  4
 Integral buffers will be    131072 words long.
 Regular integral format.
 Two-electron integral symmetry is turned off.
 Leave Link  301 at Mon Sep  5 10:35:31 2022, MaxMem=   262144000 cpu:               0.0 elap:               0.0
 (Enter /binaries/g16/l302.exe)
 Do NDO integrals.
 NPDir=0 NMtPBC=     1 NCelOv=     1 NCel=       1 NClECP=     1 NCelD=      1
         NCelK=      1 NCelE2=     1 NClLst=     1 CellRange=     0.0.
 One-electron integrals computed using PRISM.
 NBasis=     8 RedAO= F EigKep=  0.00D+00  NBF=     8
 NBsUse=     8 1.00D-04 EigRej=  0.00D+00 NBFU=     8
 Leave Link  302 at Mon Sep  5 10:35:31 2022, MaxMem=   262144000 cpu:               0.0 elap:               0.0
 (Enter /binaries/g16/l303.exe)
 DipDrv:  MaxL=1.
 Leave Link  303 at Mon Sep  5 10:35:31 2022, MaxMem=   262144000 cpu:               0.0 elap:               0.0
 (Enter /binaries/g16/l401.exe)
 Initial guess from the checkpoint file:  "in.chk"
 B after Tr=     0.000000    0.000000   -0.000000
         Rot=    0.828742    0.016451    0.557347    0.047747 Ang=  68.06 deg.
 Guess basis will be translated and rotated to current coordinates.
 JPrj=0 DoOrth=T DoCkMO=T.
 Leave Link  401 at Mon Sep  5 10:35:31 2022, MaxMem=   262144000 cpu:               0.0 elap:               0.0
 (Enter /binaries/g16/l502.exe)
 Keep J ints in memory in canonical form, NReq=859348.
 FoFCou: FMM=F IPFlag=           0 FMFlag=           0 FMFlg1=           0
         NFxFlg=           0 DoJE=F BraDBF=F KetDBF=F FulRan=T
         wScrn=  0.000000 ICntrl=       600 IOpCl=  2 I1Cent=           0 NGrid=           0
         NMat0=    1 NMatS0=     14 NMatT0=    0 NMatD0=    1 NMtDS0=    0 NMtDT0=    0
 Symmetry not used in FoFCou.
 Two-electron integral symmetry not used.
 Closed shell SCF:
 Using DIIS extrapolation, IDIIS=  1040.
 Overlap will be assumed to be unity.
 NGot=   262144000 LenX=   262083483 LenY=   262082601
 Requested convergence on RMS density matrix=1.00D-08 within 128 cycles.
 Requested convergence on MAX density matrix=1.00D-06.
 Requested convergence on             energy=1.00D-06.
 No special actions if energy rises.

 Cycle   1  Pass 1  IDiag  1:
 E=-0.135735470284004E-01
 DIIS: error= 3.34D-03 at cycle   1 NSaved=   1.
 NSaved= 1 IEnMin= 1 EnMin=-0.135735470284004E-01 IErMin= 1 ErrMin= 3.34D-03
 ErrMax= 3.34D-03  0.00D+00 EMaxC= 1.00D-01 BMatC= 1.72D-04 BMatP= 1.72D-04
 IDIUse=3 WtCom= 9.67D-01 WtEn= 3.34D-02
 Coeff-Com:  0.100D+01
 Coeff-En:   0.100D+01
 Coeff:      0.100D+01
 GapD=    2.000 DampG=2.000 DampE=1.000 DampFc=2.0000 IDamp=-1.
 RMSDP=1.90D-03 MaxDP=1.02D-02              OVMax= 0.00D+00

 Cycle   2  Pass 1  IDiag  3:
 E=-0.139208212082398E-01 Delta-E=       -0.000347274180 Rises=F Damp=F
 DIIS: error= 7.63D-04 at cycle   2 NSaved=   2.
 NSaved= 2 IEnMin= 2 EnMin=-0.139208212082398E-01 IErMin= 2 ErrMin= 7.63D-04
 ErrMax= 7.63D-04  0.00D+00 EMaxC= 1.00D-01 BMatC= 9.68D-06 BMatP= 1.72D-04
 IDIUse=3 WtCom= 9.92D-01 WtEn= 7.63D-03
 Coeff-Com: -0.304D+00 0.130D+01
 Coeff-En:   0.000D+00 0.100D+01
 Coeff:     -0.302D+00 0.130D+01
 Gap=     0.658 Goal=   None    Shift=    0.000
 RMSDP=6.29D-04 MaxDP=3.03D-03 DE=-3.47D-04 OVMax= 3.12D-03

 Cycle   3  Pass 1  IDiag  3:
 E=-0.139433874159405E-01 Delta-E=       -0.000022566208 Rises=F Damp=F
 DIIS: error= 7.18D-05 at cycle   3 NSaved=   3.
 NSaved= 3 IEnMin= 3 EnMin=-0.139433874159405E-01 IErMin= 3 ErrMin= 7.18D-05
 ErrMax= 7.18D-05  0.00D+00 EMaxC= 1.00D-01 BMatC= 8.34D-08 BMatP= 9.68D-06
 IDIUse=1 WtCom= 1.00D+00 WtEn= 0.00D+00
 Coeff-Com:  0.277D+00-0.120D+01 0.192D+01
 Coeff:      0.277D+00-0.120D+01 0.192D+01
 Gap=     0.658 Goal=   None    Shift=    0.000
 RMSDP=1.49D-04 MaxDP=5.01D-04 DE=-2.26D-05 OVMax= 5.01D-04

 Cycle   4  Pass 1  IDiag  3:
 E=-0.139438749515097E-01 Delta-E=       -0.000000487536 Rises=F Damp=F
 DIIS: error= 3.02D-06 at cycle   4 NSaved=   4.
 NSaved= 4 IEnMin= 4 EnMin=-0.139438749515097E-01 IErMin= 4 ErrMin= 3.02D-06
 ErrMax= 3.02D-06  0.00D+00 EMaxC= 1.00D-01 BMatC= 3.00D-10 BMatP= 8.34D-08
 IDIUse=1 WtCom= 1.00D+00 WtEn= 0.00D+00
 Coeff-Com: -0.231D+00 0.101D+01-0.161D+01 0.184D+01
 Coeff:     -0.231D+00 0.101D+01-0.161D+01 0.184D+01
 Gap=     0.658 Goal=   None    Shift=    0.000
 RMSDP=7.72D-06 MaxDP=2.26D-05 DE=-4.88D-07 OVMax= 3.60D-05

 Cycle   5  Pass 1  IDiag  3:
 E=-0.139438764715170E-01 Delta-E=       -0.000000001520 Rises=F Damp=F
 DIIS: error= 4.73D-07 at cycle   5 NSaved=   5.
 NSaved= 5 IEnMin= 5 EnMin=-0.139438764715170E-01 IErMin= 5 ErrMin= 4.73D-07
 ErrMax= 4.73D-07  0.00D+00 EMaxC= 1.00D-01 BMatC= 4.45D-12 BMatP= 3.00D-10
 IDIUse=1 WtCom= 1.00D+00 WtEn= 0.00D+00
 Coeff-Com:  0.130D+00-0.566D+00 0.909D+00-0.104D+01 0.157D+01
 Coeff:      0.130D+00-0.566D+00 0.909D+00-0.104D+01 0.157D+01
 Gap=     0.658 Goal=   None    Shift=    0.000
 RMSDP=8.03D-07 MaxDP=2.15D-06 DE=-1.52D-09 OVMax= 2.46D-06

 Cycle   6  Pass 1  IDiag  3:
 E=-0.139438764917994E-01 Delta-E=       -0.000000000020 Rises=F Damp=F
 DIIS: error= 8.37D-08 at cycle   6 NSaved=   6.
 NSaved= 6 IEnMin= 6 EnMin=-0.139438764917994E-01 IErMin= 6 ErrMin= 8.37D-08
 ErrMax= 8.37D-08  0.00D+00 EMaxC= 1.00D-01 BMatC= 1.69D-13 BMatP= 4.45D-12
 IDIUse=1 WtCom= 1.00D+00 WtEn= 0.00D+00
 Coeff-Com: -0.380D-01 0.165D+00-0.266D+00 0.303D+00-0.520D+00 0.136D+01
 Coeff:     -0.380D-01 0.165D+00-0.266D+00 0.303D+00-0.520D+00 0.136D+01
 Gap=     0.658 Goal=   None    Shift=    0.000
 RMSDP=1.40D-07 MaxDP=3.69D-07 DE=-2.03D-11 OVMax= 4.01D-07

 Cycle   7  Pass 1  IDiag  3:
 E=-0.139438764924034E-01 Delta-E=       -0.000000000001 Rises=F Damp=F
 DIIS: error= 2.43D-08 at cycle   7 NSaved=   7.
 NSaved= 7 IEnMin= 7 EnMin=-0.139438764924034E-01 IErMin= 7 ErrMin= 2.43D-08
 ErrMax= 2.43D-08  0.00D+00 EMaxC= 1.00D-01 BMatC= 9.16D-15 BMatP= 1.69D-13
 IDIUse=1 WtCom= 1.00D+00 WtEn= 0.00D+00
 Coeff-Com: -0.190D-02 0.823D-02-0.132D-01 0.164D-01-0.219D-01-0.148D+00
 Coeff-Com:  0.116D+01
 Coeff:     -0.190D-02 0.823D-02-0.132D-01 0.164D-01-0.219D-01-0.148D+00
 Coeff:      0.116D+01
 Gap=     0.658 Goal=   None    Shift=    0.000
 RMSDP=2.64D-08 MaxDP=7.56D-08 DE=-6.04D-13 OVMax= 0.00D+00

 Cycle   8  Pass 1  IDiag  3:
 E=-0.139438764924371E-01 Delta-E=       -0.000000000000 Rises=F Damp=F
 DIIS: error= 2.28D-09 at cycle   8 NSaved=   8.
 NSaved= 8 IEnMin= 8 EnMin=-0.139438764924371E-01 IErMin= 8 ErrMin= 2.28D-09
 ErrMax= 2.28D-09  0.00D+00 EMaxC= 1.00D-01 BMatC= 1.26D-16 BMatP= 9.16D-15
 IDIUse=1 WtCom= 1.00D+00 WtEn= 0.00D+00
 Coeff-Com: -0.545D-05 0.499D-04-0.958D-04-0.584D-03-0.330D-03 0.105D+00
 Coeff-Com: -0.733D+00 0.163D+01
 Coeff:     -0.545D-05 0.499D-04-0.958D-04-0.584D-03-0.330D-03 0.105D+00
 Coeff:     -0.733D+00 0.163D+01
 Gap=     0.658 Goal=   None    Shift=    0.000
 RMSDP=4.77D-09 MaxDP=1.10D-08 DE=-3.38D-14 OVMax= 0.00D+00

 SCF Done:  E(RAM1) = -0.139438764924E-01 A.U. after    8 cycles
            NFock=  8  Conv=0.48D-08     -V/T= 0.9986
 KE=-9.870939469204D+00 PE=-1.322058207258D+01 EE= 9.023938359315D+00
 Leave Link  502 at Mon Sep  5 10:35:31 2022, MaxMem=   262144000 cpu:               0.0 elap:               0.0
 (Enter /binaries/g16/l701.exe)
 ... and contract with generalized density number  0.
 Compute integral first derivatives.
 Leave Link  701 at Mon Sep  5 10:35:31 2022, MaxMem=   262144000 cpu:               0.0 elap:               0.0
 (Enter /binaries/g16/l702.exe)
 L702 exits ... SP integral derivatives will be done elsewhere.
 Leave Link  702 at Mon Sep  5 10:35:31 2022, MaxMem=   262144000 cpu:               0.0 elap:               0.0
 (Enter /binaries/g16/l703.exe)
 Integral derivatives from FoFJK, PRISM(SPDF).
 Compute integral first derivatives, UseDBF=F ICtDFT=           0.
 Calling FoFJK, ICntrl=      2127 FMM=F ISym2X=0 I1Cent= 0 IOpClX= 0 NMat=1 NMatS=1 NMatT=0.
 FoFJK:  IHMeth= 8 ICntrl=    2127 DoSepK=F KAlg= 0 I1Cent=           0 FoldK=F
 IRaf=         0 NMat=       1 IRICut=       1 DoRegI=T DoRafI=F ISym2E= 0 IDoP0=3 IntGTp=3.
 FoFCou: FMM=F IPFlag=           0 FMFlag=      100000 FMFlg1=         800
         NFxFlg=           0 DoJE=F BraDBF=F KetDBF=F FulRan=T
         wScrn=  0.000000 ICntrl=      2127 IOpCl=  0 I1Cent=           0 NGrid=           0
         NMat0=    1 NMatS0=      1 NMatT0=    0 NMatD0=    1 NMtDS0=    0 NMtDT0=    0
 Symmetry not used in FoFCou.
 Leave Link  703 at Mon Sep  5 10:35:31 2022, MaxMem=   262144000 cpu:               0.0 elap:               0.0
 (Enter /binaries/g16/l716.exe)
 Dipole        = 1.87999196D-04-3.06216575D-05 1.62550353D-04
 ***** Axes restored to original set *****
 -------------------------------------------------------------------
 Center     Atomic                   Forces (Hartrees/Bohr)
 Number     Number              X              Y              Z
 -------------------------------------------------------------------
      1        6           0.000040522    0.000031877   -0.000708196
      2        1          -0.001345731    0.003689289    0.000139105
      3        1          -0.001289168   -0.001810901   -0.003013743
      4        1          -0.001335452   -0.001878665    0.003442392
      5        1           0.003929829   -0.000031600    0.000140441
 -------------------------------------------------------------------
 Cartesian Forces:  Max     0.003929829 RMS     0.002042817
 Leave Link  716 at Mon Sep  5 10:35:31 2022, MaxMem=   262144000 cpu:               0.0 elap:               0.0
 (Enter /binaries/g16/l103.exe)

 GradGradGradGradGradGradGradGradGradGradGradGradGradGradGradGradGradGrad
 Berny optimization.
 Using GEDIIS/GDIIS optimizer.
 FormGI is forming the generalized inverse of G from B-inverse, IUseBI=4.
 Internal  Forces:  Max     0.004141724 RMS     0.002105945
 Search for a local minimum.
 Step number   2 out of a maximum of   24
 All quantities printed in internal units (Hartrees-Bohrs-Radians)
 RMS Force = .21059D-02 SwitMx=.10000D-02 MixMth= 1
 Mixed Optimization -- RFO/linear search
 Update second derivatives using D2CorX and points    1    2
 DE= -4.98D-03 DEPred=-6.08D-03 R= 8.19D-01
 TightC=F SS=  1.41D+00  RLast= 1.75D-01 DXNew= 5.0454D-01 5.2618D-01
 Trust test= 8.19D-01 RLast= 1.75D-01 DXMaxT set to 5.05D-01
 The second derivative matrix:
                          R1        R2        R3        R4        A1
           R1           0.38652
           R2           0.01382   0.38869
           R3           0.01457   0.01429   0.38081
           R4           0.01423   0.01383   0.01458   0.38654
           A1          -0.00007  -0.00008  -0.00006  -0.00007   0.16000
           A2          -0.00019  -0.00019  -0.00017  -0.00019  -0.00000
           A3          -0.00004  -0.00004  -0.00003  -0.00004  -0.00000
           A4           0.00031   0.00033   0.00027   0.00031   0.00000
           A5           0.00025   0.00025   0.00023   0.00025   0.00000
           A6          -0.00027  -0.00028  -0.00024  -0.00027  -0.00000
           D1           0.00017   0.00018   0.00015   0.00017   0.00000
           D2           0.00055   0.00058   0.00050   0.00055   0.00000
           D3           0.00027   0.00028   0.00024   0.00027   0.00000
           D4          -0.00029  -0.00030  -0.00026  -0.00029  -0.00000
                          A2        A3        A4        A5        A6
           A2           0.16000
           A3          -0.00000   0.16000
           A4           0.00000   0.00000   0.16000
           A5          -0.00000   0.00000   0.00000   0.16000
           A6           0.00000  -0.00000   0.00000  -0.00000   0.16000
           D1          -0.00000   0.00000  -0.00000   0.00000  -0.00000
           D2          -0.00000   0.00000  -0.00000   0.00000  -0.00000
           D3          -0.00000   0.00000  -0.00000   0.00000  -0.00000
           D4           0.00000  -0.00000   0.00000  -0.00000   0.00000
                          D1        D2        D3        D4
           D1           0.00434
           D2           0.00000   0.00500
           D3           0.00000   0.00000   0.00499
           D4          -0.00000  -0.00000  -0.00000   0.00499
 ITU=  1  0
 Use linear search instead of GDIIS.
     Eigenvalues ---    0.05255   0.05900   0.08734   0.16000   0.16000
     Eigenvalues ---    0.36754   0.37230   0.37433   0.42840
 RFO step:  Lambda=-1.73911941D-06 EMin= 5.25515123D-02
 Quartic linear search produced a step of -0.11502.
 Iteration  1 RMS(Cart)=  0.00542029 RMS(Int)=  0.00000378
 Iteration  2 RMS(Cart)=  0.00000244 RMS(Int)=  0.00000037
 Iteration  3 RMS(Cart)=  0.00000000 RMS(Int)=  0.00000037
 ITry= 1 IFail=0 DXMaxC= 1.02D-02 DCOld= 1.00D+10 DXMaxT= 5.05D-01 DXLimC= 3.00D+00 Rises=F
 Variable       Old X    -DE/DX   Delta X   Delta X   Delta X     New X
                                 (Linear)    (Quad)   (Total)
    R1        2.11076  -0.00393  -0.01021   0.00013  -0.01008   2.10068
    R2        2.10997  -0.00374  -0.01064   0.00104  -0.00959   2.10037
    R3        2.11169  -0.00414  -0.00924  -0.00146  -0.01069   2.10100
    R4        2.11075  -0.00393  -0.01021   0.00012  -0.01008   2.10066
    A1        1.91185  -0.00002  -0.00005  -0.00070  -0.00075   1.91109
    A2        1.90899   0.00006  -0.00000   0.00101   0.00100   1.91000
    A3        1.91112  -0.00005  -0.00005  -0.00029  -0.00034   1.91077
    A4        1.91077  -0.00001   0.00017  -0.00018  -0.00001   1.91076
    A5        1.91198  -0.00009  -0.00006  -0.00081  -0.00087   1.91111
    A6        1.90909   0.00012  -0.00001   0.00098   0.00097   1.91006
    D1       -2.09496  -0.00001  -0.00004   0.00035   0.00031  -2.09465
    D2        2.09701  -0.00011  -0.00013  -0.00154  -0.00167   2.09534
    D3       -2.09174  -0.00011   0.00004  -0.00165  -0.00161  -2.09335
    D4        2.09444  -0.00000   0.00017  -0.00011   0.00006   2.09450
         Item               Value     Threshold  Converged?
 Maximum Force            0.004142     0.000450     NO 
 RMS     Force            0.002106     0.000300     NO 
 Maximum Displacement     0.010187     0.001800     NO 
 RMS     Displacement     0.005421     0.001200     NO 
 Predicted change in Energy=-7.202026D-05
 Lowest energy point so far.  Saving SCF results.
 GradGradGradGradGradGradGradGradGradGradGradGradGradGradGradGradGradGrad

 Leave Link  103 at Mon Sep  5 10:35:31 2022, MaxMem=   262144000 cpu:               0.0 elap:               0.0
 (Enter /binaries/g16/l202.exe)
                          Input orientation:                          
 ---------------------------------------------------------------------
 Center     Atomic      Atomic             Coordinates (Angstroms)
 Number     Number       Type             X           Y           Z
 ---------------------------------------------------------------------
      1          6           0        4.291809    3.658805   -0.001470
      2          1           0        4.662438    2.610777   -0.000828
      3          1           0        4.663366    4.184247    0.904741
      4          1           0        4.661302    4.181300   -0.910631
      5          1           0        3.180185    3.658872   -0.000812
 ---------------------------------------------------------------------
                    Distance matrix (angstroms):
                    1          2          3          4          5
     1  C    0.000000
     2  H    1.111633   0.000000
     3  H    1.111469   1.815451   0.000000
     4  H    1.111800   1.815017   1.815376   0.000000
     5  H    1.111624   1.815372   1.815453   1.815051   0.000000
 Stoichiometry    CH4
 Framework group  C1[X(CH4)]
 Deg. of freedom     9
 Full point group                 C1      NOp   1
 RotChk:  IX=0 Diff= 1.89D-01
 Largest Abelian subgroup         C1      NOp   1
 Largest concise Abelian subgroup C1      NOp   1
                         Standard orientation:                         
 ---------------------------------------------------------------------
 Center     Atomic      Atomic             Coordinates (Angstroms)
 Number     Number       Type             X           Y           Z
 ---------------------------------------------------------------------
      1          6           0       -0.000138    0.000005   -0.000091
      2          1           0        0.380399   -0.870576   -0.577160
      3          1           0       -1.109978   -0.040745    0.044144
      4          1           0        0.413386   -0.030669    1.031489
      5          1           0        0.317019    0.941959   -0.497929
 ---------------------------------------------------------------------
 Rotational constants (GHZ):         152.1979770         152.1815800         152.1435540
 Leave Link  202 at Mon Sep  5 10:35:31 2022, MaxMem=   262144000 cpu:               0.0 elap:               0.0
 (Enter /binaries/g16/l301.exe)
 Standard basis: VSTO-6G (5D, 7F)
 Ernie: Thresh=  0.10000D-02 Tol=  0.10000D-05 Strict=F.
  NNHCO=     0 NNPyr=     0 NCTC=     0               EPep=         0.000000000
    EC=         6.784207294  ECS=         0.509774827   EG=         0.066566343
   EHC=         0.000000000  EAt=        -6.115142680  AtH=         0.604449838
 EPDDG=         0.000000000  ECC=         7.360548464 EAtT=         6.719592518
 There are     8 symmetry adapted cartesian basis functions of A   symmetry.
 There are     8 symmetry adapted basis functions of A   symmetry.
     8 basis functions,    48 primitive gaussians,     8 cartesian basis functions
     4 alpha electrons        4 beta electrons
       nuclear repulsion energy        14.0801409822 Hartrees.
 IExCor=    0 DFT=F Ex=HF Corr=None ExCW=0 ScaHFX=  1.000000
 ScaDFX=  1.000000  1.000000  1.000000  1.000000 ScalE2=  1.000000  1.000000
 IRadAn=      5 IRanWt=     -1 IRanGd=            0 ICorTp=0 IEmpDi=  4
 Integral buffers will be    131072 words long.
 Regular integral format.
 Two-electron integral symmetry is turned off.
 Leave Link  301 at Mon Sep  5 10:35:31 2022, MaxMem=   262144000 cpu:               0.0 elap:               0.0
 (Enter /binaries/g16/l302.exe)
 Do NDO integrals.
 NPDir=0 NMtPBC=     1 NCelOv=     1 NCel=       1 NClECP=     1 NCelD=      1
         NCelK=      1 NCelE2=     1 NClLst=     1 CellRange=     0.0.
 One-electron integrals computed using PRISM.
 NBasis=     8 RedAO= F EigKep=  0.00D+00  NBF=     8
 NBsUse=     8 1.00D-04 EigRej=  0.00D+00 NBFU=     8
 Leave Link  302 at Mon Sep  5 10:35:31 2022, MaxMem=   262144000 cpu:               0.0 elap:               0.0
 (Enter /binaries/g16/l303.exe)
 DipDrv:  MaxL=1.
 Leave Link  303 at Mon Sep  5 10:35:31 2022, MaxMem=   262144000 cpu:               0.0 elap:               0.0
 (Enter /binaries/g16/l401.exe)
 Initial guess from the checkpoint file:  "in.chk"
 B after Tr=    -0.000000    0.000000    0.000000
         Rot=    0.997765   -0.008725   -0.023474   -0.061949 Ang=  -7.66 deg.
 Guess basis will be translated and rotated to current coordinates.
 JPrj=0 DoOrth=T DoCkMO=T.
 Leave Link  401 at Mon Sep  5 10:35:31 2022, MaxMem=   262144000 cpu:               0.0 elap:               0.0
 (Enter /binaries/g16/l502.exe)
 Keep J ints in memory in canonical form, NReq=859348.
 FoFCou: FMM=F IPFlag=           0 FMFlag=           0 FMFlg1=           0
         NFxFlg=           0 DoJE=F BraDBF=F KetDBF=F FulRan=T
         wScrn=  0.000000 ICntrl=       600 IOpCl=  2 I1Cent=           0 NGrid=           0
         NMat0=    1 NMatS0=     14 NMatT0=    0 NMatD0=    1 NMtDS0=    0 NMtDT0=    0
 Symmetry not used in FoFCou.
 Two-electron integral symmetry not used.
 Closed shell SCF:
 Using DIIS extrapolation, IDIIS=  1040.
 Overlap will be assumed to be unity.
 NGot=   262144000 LenX=   262083483 LenY=   262082601
 Requested convergence on RMS density matrix=1.00D-08 within 128 cycles.
 Requested convergence on MAX density matrix=1.00D-06.
 Requested convergence on             energy=1.00D-06.
 No special actions if energy rises.

 Cycle   1  Pass 1  IDiag  1:
 E=-0.140192347865007E-01
 DIIS: error= 3.81D-04 at cycle   1 NSaved=   1.
 NSaved= 1 IEnMin= 1 EnMin=-0.140192347865007E-01 IErMin= 1 ErrMin= 3.81D-04
 ErrMax= 3.81D-04  0.00D+00 EMaxC= 1.00D-01 BMatC= 2.37D-06 BMatP= 2.37D-06
 IDIUse=3 WtCom= 9.96D-01 WtEn= 3.81D-03
 Coeff-Com:  0.100D+01
 Coeff-En:   0.100D+01
 Coeff:      0.100D+01
 RMSDP=2.25D-04 MaxDP=1.18D-03              OVMax= 0.00D+00

 Cycle   2  Pass 1  IDiag  3:
 E=-0.140240481369069E-01 Delta-E=       -0.000004813350 Rises=F Damp=F
 DIIS: error= 8.99D-05 at cycle   2 NSaved=   2.
 NSaved= 2 IEnMin= 2 EnMin=-0.140240481369069E-01 IErMin= 2 ErrMin= 8.99D-05
 ErrMax= 8.99D-05  0.00D+00 EMaxC= 1.00D-01 BMatC= 1.36D-07 BMatP= 2.37D-06
 IDIUse=1 WtCom= 1.00D+00 WtEn= 0.00D+00
 Coeff-Com: -0.306D+00 0.131D+01
 Coeff:     -0.306D+00 0.131D+01
 Gap=     0.660 Goal=   None    Shift=    0.000
 RMSDP=7.66D-05 MaxDP=3.53D-04 DE=-4.81D-06 OVMax= 3.63D-04

 Cycle   3  Pass 1  IDiag  3:
 E=-0.140243741920045E-01 Delta-E=       -0.000000326055 Rises=F Damp=F
 DIIS: error= 9.31D-06 at cycle   3 NSaved=   3.
 NSaved= 3 IEnMin= 3 EnMin=-0.140243741920045E-01 IErMin= 3 ErrMin= 9.31D-06
 ErrMax= 9.31D-06  0.00D+00 EMaxC= 1.00D-01 BMatC= 1.42D-09 BMatP= 1.36D-07
 IDIUse=1 WtCom= 1.00D+00 WtEn= 0.00D+00
 Coeff-Com:  0.267D+00-0.115D+01 0.188D+01
 Coeff:      0.267D+00-0.115D+01 0.188D+01
 Gap=     0.660 Goal=   None    Shift=    0.000
 RMSDP=1.89D-05 MaxDP=6.01D-05 DE=-3.26D-07 OVMax= 5.88D-05

 Cycle   4  Pass 1  IDiag  3:
 E=-0.140243823737851E-01 Delta-E=       -0.000000008182 Rises=F Damp=F
 DIIS: error= 5.83D-07 at cycle   4 NSaved=   4.
 NSaved= 4 IEnMin= 4 EnMin=-0.140243823737851E-01 IErMin= 4 ErrMin= 5.83D-07
 ErrMax= 5.83D-07  0.00D+00 EMaxC= 1.00D-01 BMatC= 9.35D-12 BMatP= 1.42D-09
 IDIUse=1 WtCom= 1.00D+00 WtEn= 0.00D+00
 Coeff-Com: -0.166D+00 0.713D+00-0.117D+01 0.163D+01
 Coeff:     -0.166D+00 0.713D+00-0.117D+01 0.163D+01
 Gap=     0.660 Goal=   None    Shift=    0.000
 RMSDP=1.30D-06 MaxDP=3.12D-06 DE=-8.18D-09 OVMax= 0.00D+00

 Cycle   5  Pass 1  IDiag  3:
 E=-0.140243824214412E-01 Delta-E=       -0.000000000048 Rises=F Damp=F
 DIIS: error= 7.86D-08 at cycle   5 NSaved=   5.
 NSaved= 5 IEnMin= 5 EnMin=-0.140243824214412E-01 IErMin= 5 ErrMin= 7.86D-08
 ErrMax= 7.86D-08  0.00D+00 EMaxC= 1.00D-01 BMatC= 1.65D-13 BMatP= 9.35D-12
 IDIUse=1 WtCom= 1.00D+00 WtEn= 0.00D+00
 Coeff-Com:  0.906D-01-0.390D+00 0.643D+00-0.929D+00 0.159D+01
 Coeff:      0.906D-01-0.390D+00 0.643D+00-0.929D+00 0.159D+01
 Gap=     0.660 Goal=   None    Shift=    0.000
 RMSDP=1.64D-07 MaxDP=4.75D-07 DE=-4.77D-11 OVMax= 0.00D+00

 Cycle   6  Pass 1  IDiag  3:
 E=-0.140243824222193E-01 Delta-E=       -0.000000000001 Rises=F Damp=F
 DIIS: error= 8.52D-09 at cycle   6 NSaved=   6.
 NSaved= 6 IEnMin= 6 EnMin=-0.140243824222193E-01 IErMin= 6 ErrMin= 8.52D-09
 ErrMax= 8.52D-09  0.00D+00 EMaxC= 1.00D-01 BMatC= 2.43D-15 BMatP= 1.65D-13
 IDIUse=1 WtCom= 1.00D+00 WtEn= 0.00D+00
 Coeff-Com: -0.417D-01 0.180D+00-0.296D+00 0.431D+00-0.798D+00 0.152D+01
 Coeff:     -0.417D-01 0.180D+00-0.296D+00 0.431D+00-0.798D+00 0.152D+01
 Gap=     0.660 Goal=   None    Shift=    0.000
 RMSDP=2.20D-08 MaxDP=5.66D-08 DE=-7.78D-13 OVMax= 0.00D+00

 Cycle   7  Pass 1  IDiag  3:
 E=-0.140243824222281E-01 Delta-E=       -0.000000000000 Rises=F Damp=F
 DIIS: error= 4.24D-10 at cycle   7 NSaved=   7.
 NSaved= 7 IEnMin= 7 EnMin=-0.140243824222281E-01 IErMin= 7 ErrMin= 4.24D-10
 ErrMax= 4.24D-10  0.00D+00 EMaxC= 1.00D-01 BMatC= 5.87D-18 BMatP= 2.43D-15
 IDIUse=1 WtCom= 1.00D+00 WtEn= 0.00D+00
 Coeff-Com:  0.281D-02-0.121D-01 0.200D-01-0.294D-01 0.555D-01-0.120D+00
 Coeff-Com:  0.108D+01
 Coeff:      0.281D-02-0.121D-01 0.200D-01-0.294D-01 0.555D-01-0.120D+00
 Coeff:      0.108D+01
 Gap=     0.660 Goal=   None    Shift=    0.000
 RMSDP=7.04D-10 MaxDP=1.74D-09 DE=-8.88D-15 OVMax= 0.00D+00

 SCF Done:  E(RAM1) = -0.140243824222E-01 A.U. after    7 cycles
            NFock=  7  Conv=0.70D-09     -V/T= 0.9986
 KE=-9.877200127504D+00 PE=-1.325369512315D+01 EE= 9.036729886034D+00
 Leave Link  502 at Mon Sep  5 10:35:31 2022, MaxMem=   262144000 cpu:               0.0 elap:               0.0
 (Enter /binaries/g16/l701.exe)
 ... and contract with generalized density number  0.
 Compute integral first derivatives.
 Leave Link  701 at Mon Sep  5 10:35:31 2022, MaxMem=   262144000 cpu:               0.0 elap:               0.0
 (Enter /binaries/g16/l702.exe)
 L702 exits ... SP integral derivatives will be done elsewhere.
 Leave Link  702 at Mon Sep  5 10:35:31 2022, MaxMem=   262144000 cpu:               0.0 elap:               0.0
 (Enter /binaries/g16/l703.exe)
 Integral derivatives from FoFJK, PRISM(SPDF).
 Compute integral first derivatives, UseDBF=F ICtDFT=           0.
 Calling FoFJK, ICntrl=      2127 FMM=F ISym2X=0 I1Cent= 0 IOpClX= 0 NMat=1 NMatS=1 NMatT=0.
 FoFJK:  IHMeth= 8 ICntrl=    2127 DoSepK=F KAlg= 0 I1Cent=           0 FoldK=F
 IRaf=         0 NMat=       1 IRICut=       1 DoRegI=T DoRafI=F ISym2E= 0 IDoP0=3 IntGTp=3.
 FoFCou: FMM=F IPFlag=           0 FMFlag=      100000 FMFlg1=         800
         NFxFlg=           0 DoJE=F BraDBF=F KetDBF=F FulRan=T
         wScrn=  0.000000 ICntrl=      2127 IOpCl=  0 I1Cent=           0 NGrid=           0
         NMat0=    1 NMatS0=      1 NMatT0=    0 NMatD0=    1 NMtDS0=    0 NMtDT0=    0
 Symmetry not used in FoFCou.
 Leave Link  703 at Mon Sep  5 10:35:31 2022, MaxMem=   262144000 cpu:               0.0 elap:               0.0
 (Enter /binaries/g16/l716.exe)
 Dipole        = 8.05321449D-05-3.11380989D-06 5.28621426D-05
 ***** Axes restored to original set *****
 -------------------------------------------------------------------
 Center     Atomic                   Forces (Hartrees/Bohr)
 Number     Number              X              Y              Z
 -------------------------------------------------------------------
      1        6           0.000009331   -0.000001553   -0.000260678
      2        1          -0.000011288   -0.000004472    0.000053990
      3        1           0.000014116    0.000021486    0.000070322
      4        1          -0.000008015   -0.000005708    0.000084746
      5        1          -0.000004144   -0.000009753    0.000051620
 -------------------------------------------------------------------
 Cartesian Forces:  Max     0.000260678 RMS     0.000076055
 Leave Link  716 at Mon Sep  5 10:35:31 2022, MaxMem=   262144000 cpu:               0.0 elap:               0.0
 (Enter /binaries/g16/l103.exe)

 GradGradGradGradGradGradGradGradGradGradGradGradGradGradGradGradGradGrad
 Berny optimization.
 Using GEDIIS/GDIIS optimizer.
 FormGI is forming the generalized inverse of G from B-inverse, IUseBI=4.
 Internal  Forces:  Max     0.000074646 RMS     0.000035940
 Search for a local minimum.
 Step number   3 out of a maximum of   24
 All quantities printed in internal units (Hartrees-Bohrs-Radians)
 RMS Force = .35940D-04 SwitMx=.10000D-02 MixMth= 2
 Mixed Optimization -- En-DIIS/RFO-DIIS
 Update second derivatives using D2CorX and points    1    2    3
 DE= -8.05D-05 DEPred=-7.20D-05 R= 1.12D+00
 TightC=F SS=  1.41D+00  RLast= 2.05D-02 DXNew= 8.4853D-01 6.1372D-02
 Trust test= 1.12D+00 RLast= 2.05D-02 DXMaxT set to 5.05D-01
 The second derivative matrix:
                          R1        R2        R3        R4        A1
           R1           0.37665
           R2           0.00529   0.38140
           R3           0.00380   0.00497   0.36903
           R4           0.00446   0.00539   0.00390   0.37686
           A1          -0.00273  -0.00260  -0.00289  -0.00273   0.15990
           A2           0.00307   0.00289   0.00329   0.00307   0.00014
           A3          -0.00049  -0.00046  -0.00051  -0.00049  -0.00004
           A4           0.00009   0.00012   0.00003   0.00009  -0.00001
           A5          -0.00195  -0.00181  -0.00211  -0.00195  -0.00011
           A6           0.00202   0.00187   0.00219   0.00202   0.00013
           D1           0.00022   0.00023   0.00021   0.00022  -0.00000
           D2           0.00151   0.00150   0.00151   0.00152  -0.00001
           D3           0.00143   0.00140   0.00147   0.00143  -0.00000
           D4          -0.00008  -0.00010  -0.00004  -0.00008   0.00001
                          A2        A3        A4        A5        A6
           A2           0.15981
           A3           0.00005   0.15999
           A4           0.00002  -0.00000   0.15999
           A5           0.00015  -0.00004  -0.00001   0.15988
           A6          -0.00017   0.00004   0.00001   0.00013   0.15986
           D1           0.00000   0.00000  -0.00000  -0.00000   0.00000
           D2           0.00001   0.00001  -0.00000   0.00001  -0.00001
           D3          -0.00000   0.00001   0.00000   0.00001  -0.00002
           D4          -0.00001   0.00000   0.00000   0.00001  -0.00001
                          D1        D2        D3        D4
           D1           0.00434
           D2           0.00000   0.00502
           D3           0.00000   0.00003   0.00502
           D4          -0.00000  -0.00000  -0.00000   0.00499
 ITU=  1  1  0
 Use linear search instead of GDIIS.
     Eigenvalues ---    0.05248   0.05891   0.08735   0.15994   0.16000
     Eigenvalues ---    0.36658   0.37230   0.37377   0.39132
 RFO step:  Lambda=-1.30766364D-07 EMin= 5.24796554D-02
 Quartic linear search produced a step of  0.00184.
 Iteration  1 RMS(Cart)=  0.00018055 RMS(Int)=  0.00000009
 Iteration  2 RMS(Cart)=  0.00000006 RMS(Int)=  0.00000007
 ITry= 1 IFail=0 DXMaxC= 4.35D-04 DCOld= 1.00D+10 DXMaxT= 5.05D-01 DXLimC= 3.00D+00 Rises=F
 Variable       Old X    -DE/DX   Delta X   Delta X   Delta X     New X
                                 (Linear)    (Quad)   (Total)
    R1        2.10068   0.00000  -0.00002   0.00001  -0.00000   2.10068
    R2        2.10037   0.00007  -0.00002   0.00021   0.00019   2.10056
    R3        2.10100  -0.00007  -0.00002  -0.00019  -0.00021   2.10079
    R4        2.10066   0.00000  -0.00002   0.00002   0.00001   2.10067
    A1        1.91109  -0.00001  -0.00000  -0.00032  -0.00032   1.91078
    A2        1.91000   0.00002   0.00000   0.00045   0.00045   1.91044
    A3        1.91077  -0.00002  -0.00000  -0.00010  -0.00010   1.91067
    A4        1.91076  -0.00001  -0.00000  -0.00009  -0.00009   1.91068
    A5        1.91111  -0.00003  -0.00000  -0.00035  -0.00035   1.91076
    A6        1.91006   0.00004   0.00000   0.00041   0.00041   1.91047
    D1       -2.09465   0.00000   0.00000   0.00017   0.00017  -2.09448
    D2        2.09534  -0.00004  -0.00000  -0.00066  -0.00067   2.09467
    D3       -2.09335  -0.00004  -0.00000  -0.00073  -0.00074  -2.09409
    D4        2.09450  -0.00000   0.00000  -0.00007  -0.00007   2.09443
         Item               Value     Threshold  Converged?
 Maximum Force            0.000075     0.000450     YES
 RMS     Force            0.000036     0.000300     YES
 Maximum Displacement     0.000435     0.001800     YES
 RMS     Displacement     0.000181     0.001200     YES
 Predicted change in Energy=-6.568757D-08
 Optimization completed.
    -- Stationary point found.
                           ----------------------------
                           !   Optimized Parameters   !
                           ! (Angstroms and Degrees)  !
 --------------------------                            --------------------------
 ! Name  Definition              Value          Derivative Info.                !
 --------------------------------------------------------------------------------
 ! R1    R(1,2)                  1.1116         -DE/DX =    0.0                 !
 ! R2    R(1,3)                  1.1115         -DE/DX =    0.0001              !
 ! R3    R(1,4)                  1.1118         -DE/DX =   -0.0001              !
 ! R4    R(1,5)                  1.1116         -DE/DX =    0.0                 !
 ! A1    A(2,1,3)              109.4976         -DE/DX =    0.0                 !
 ! A2    A(2,1,4)              109.4347         -DE/DX =    0.0                 !
 ! A3    A(2,1,5)              109.4793         -DE/DX =    0.0                 !
 ! A4    A(3,1,4)              109.4787         -DE/DX =    0.0                 !
 ! A5    A(3,1,5)              109.4985         -DE/DX =    0.0                 !
 ! A6    A(4,1,5)              109.4385         -DE/DX =    0.0                 !
 ! D1    D(2,1,4,3)           -120.0146         -DE/DX =    0.0                 !
 ! D2    D(2,1,5,3)            120.054          -DE/DX =    0.0                 !
 ! D3    D(2,1,5,4)           -119.9401         -DE/DX =    0.0                 !
 ! D4    D(3,1,5,4)            120.0058         -DE/DX =    0.0                 !
 --------------------------------------------------------------------------------
 Lowest energy point so far.  Saving SCF results.
 Largest change from initial coordinates is atom    4       0.650 Angstoms.
 GradGradGradGradGradGradGradGradGradGradGradGradGradGradGradGradGradGrad

 Leave Link  103 at Mon Sep  5 10:35:31 2022, MaxMem=   262144000 cpu:               0.0 elap:               0.0
 (Enter /binaries/g16/l202.exe)
                          Input orientation:                          
 ---------------------------------------------------------------------
 Center     Atomic      Atomic             Coordinates (Angstroms)
 Number     Number       Type             X           Y           Z
 ---------------------------------------------------------------------
      1          6           0        4.291809    3.658805   -0.001470
      2          1           0        4.662438    2.610777   -0.000828
      3          1           0        4.663366    4.184247    0.904741
      4          1           0        4.661302    4.181300   -0.910631
      5          1           0        3.180185    3.658872   -0.000812
 ---------------------------------------------------------------------
                    Distance matrix (angstroms):
                    1          2          3          4          5
     1  C    0.000000
     2  H    1.111633   0.000000
     3  H    1.111469   1.815451   0.000000
     4  H    1.111800   1.815017   1.815376   0.000000
     5  H    1.111624   1.815372   1.815453   1.815051   0.000000
 Stoichiometry    CH4
 Framework group  C1[X(CH4)]
 Deg. of freedom     9
 Full point group                 C1      NOp   1
 RotChk:  IX=0 Diff= 9.22D-13
 Largest Abelian subgroup         C1      NOp   1
 Largest concise Abelian subgroup C1      NOp   1
                         Standard orientation:                         
 ---------------------------------------------------------------------
 Center     Atomic      Atomic             Coordinates (Angstroms)
 Number     Number       Type             X           Y           Z
 ---------------------------------------------------------------------
      1          6           0       -0.000138    0.000005   -0.000091
      2          1           0        0.380399   -0.870576   -0.577160
      3          1           0       -1.109978   -0.040745    0.044144
      4          1           0        0.413386   -0.030669    1.031489
      5          1           0        0.317019    0.941959   -0.497929
 ---------------------------------------------------------------------
 Rotational constants (GHZ):         152.1979770         152.1815800         152.1435540
 Leave Link  202 at Mon Sep  5 10:35:31 2022, MaxMem=   262144000 cpu:               0.0 elap:               0.0
 (Enter /binaries/g16/l601.exe)
 Copying SCF densities to generalized density rwf, IOpCl= 0 IROHF=0.

 **********************************************************************

            Population analysis using the SCF Density.

 **********************************************************************

 Orbital symmetries:
       Occupied  (A) (A) (A) (A)
       Virtual   (A) (A) (A) (A)
 The electronic state is 1-A.
 Alpha  occ. eigenvalues --   -1.06146  -0.48916  -0.48910  -0.48900
 Alpha virt. eigenvalues --    0.17122   0.17129   0.17134   0.19049
          Condensed to atoms (all electrons):
               1          2          3          4          5
     1  C    4.265947   0.000000   0.000000   0.000000   0.000000
     2  H    0.000000   0.933516   0.000000   0.000000   0.000000
     3  H    0.000000   0.000000   0.933436   0.000000   0.000000
     4  H    0.000000   0.000000   0.000000   0.933591   0.000000
     5  H    0.000000   0.000000   0.000000   0.000000   0.933510
 Mulliken charges:
               1
     1  C   -0.265947
     2  H    0.066484
     3  H    0.066564
     4  H    0.066409
     5  H    0.066490
 Sum of Mulliken charges =  -0.00000
 Mulliken charges with hydrogens summed into heavy atoms:
               1
     1  C   -0.000000
 Charge=             -0.0000 electrons
 Dipole moment (field-independent basis, Debye):
    X=              0.0002    Y=             -0.0000    Z=              0.0001  Tot=              0.0002
 N-N= 1.408014098220D+01 E-N=-1.325369512338D+01  KE=-9.877200127504D+00
 Leave Link  601 at Mon Sep  5 10:35:31 2022, MaxMem=   262144000 cpu:               0.0 elap:               0.0
 (Enter /binaries/g16/l9999.exe)
 Unable to Open any file for archive entry.
 1\1\GINC-WEB\FOpt\RAM1\ZDO\C1H4\CALCUS\05-Sep-2022\0\\#p opt AM1\\File
  created by ccinput\\0,1\C,4.2918086967,3.6588047687,-0.0014704396\H,4
 .6624377798,2.6107768517,-0.0008280759\H,4.663366097,4.1842466852,0.90
 47412819\H,4.6613023641,4.1812996391,-0.9106312549\H,3.1801850623,3.65
 88720553,-0.0008115114\\Version=ES64L-G16RevC.01\State=1-A\HF=-0.01402
 44\RMSD=7.043e-10\RMSF=7.606e-05\Dipole=0.0000033,-0.0000016,-0.000096
 3\PG=C01 [X(C1H4)]\\@
 The archive entry for this job was punched.


       THE DEATH-KNELL OF THE ATOM

 SO THE ATOMS IN TURN, WE NOW CLEARLY DISCERN,
 FLY TO BITS WITH THE UTMOST FACILITY;
 THEY WEND ON THEIR WAY, AND, IN SPLITTING, DISPLAY
 AN ABSOLUTE LACK OF STABILITY.

          SIR WM. RAMSAY, 1905
 Job cpu time:       0 days  0 hours  0 minutes  0.9 seconds.
 Elapsed time:       0 days  0 hours  0 minutes  0.9 seconds.
 File lengths (MBytes):  RWF=      6 Int=      0 D2E=      0 Chk=      2 Scr=      1
 Normal termination of Gaussian 16 at Mon Sep  5 10:35:31 2022.
