 Entering Gaussian System, Link 0=g16
 Input=calc.com
 Output=calc.log
 Initial command:
 /binaries/g16/l1.exe "/calcus/scratch/scr/21/Gau-134.inp" -scrdir="/calcus/scratch/scr/21/"
 Entering Link 1 = /binaries/g16/l1.exe PID=       136.
  
 Copyright (c) 1988-2019, Gaussian, Inc.  All Rights Reserved.
  
 This is part of the Gaussian(R) 16 program.  It is based on
 the Gaussian(R) 09 system (copyright 2009, Gaussian, Inc.),
 the Gaussian(R) 03 system (copyright 2003, Gaussian, Inc.),
 the Gaussian(R) 98 system (copyright 1998, Gaussian, Inc.),
 the Gaussian(R) 94 system (copyright 1995, Gaussian, Inc.),
 the Gaussian 92(TM) system (copyright 1992, Gaussian, Inc.),
 the Gaussian 90(TM) system (copyright 1990, Gaussian, Inc.),
 the Gaussian 88(TM) system (copyright 1988, Gaussian, Inc.),
 the Gaussian 86(TM) system (copyright 1986, Carnegie Mellon
 University), and the Gaussian 82(TM) system (copyright 1983,
 Carnegie Mellon University). Gaussian is a federally registered
 trademark of Gaussian, Inc.
  
 This software contains proprietary and confidential information,
 including trade secrets, belonging to Gaussian, Inc.
  
 This software is provided under written license and may be
 used, copied, transmitted, or stored only in accord with that
 written license.
  
 The following legend is applicable only to US Government
 contracts under FAR:
  
                    RESTRICTED RIGHTS LEGEND
  
 Use, reproduction and disclosure by the US Government is
 subject to restrictions as set forth in subparagraphs (a)
 and (c) of the Commercial Computer Software - Restricted
 Rights clause in FAR 52.227-19.
  
 Gaussian, Inc.
 340 Quinnipiac St., Bldg. 40, Wallingford CT 06492
  
  
 ---------------------------------------------------------------
 Warning -- This program may not be used in any manner that
 competes with the business of Gaussian, Inc. or will provide
 assistance to any competitor of Gaussian, Inc.  The licensee
 of this program is prohibited from giving any competitor of
 Gaussian, Inc. access to this program.  By using this program,
 the user acknowledges that Gaussian, Inc. is engaged in the
 business of creating and licensing software in the field of
 computational chemistry and represents and warrants to the
 licensee that it is not a competitor of Gaussian, Inc. and that
 it will not use this program in any manner prohibited above.
 ---------------------------------------------------------------
  

 Cite this work as:
 Gaussian 16, Revision C.01,
 M. J. Frisch, G. W. Trucks, H. B. Schlegel, G. E. Scuseria, 
 M. A. Robb, J. R. Cheeseman, G. Scalmani, V. Barone, 
 G. A. Petersson, H. Nakatsuji, X. Li, M. Caricato, A. V. Marenich, 
 J. Bloino, B. G. Janesko, R. Gomperts, B. Mennucci, H. P. Hratchian, 
 J. V. Ortiz, A. F. Izmaylov, J. L. Sonnenberg, D. Williams-Young, 
 F. Ding, F. Lipparini, F. Egidi, J. Goings, B. Peng, A. Petrone, 
 T. Henderson, D. Ranasinghe, V. G. Zakrzewski, J. Gao, N. Rega, 
 G. Zheng, W. Liang, M. Hada, M. Ehara, K. Toyota, R. Fukuda, 
 J. Hasegawa, M. Ishida, T. Nakajima, Y. Honda, O. Kitao, H. Nakai, 
 T. Vreven, K. Throssell, J. A. Montgomery, Jr., J. E. Peralta, 
 F. Ogliaro, M. J. Bearpark, J. J. Heyd, E. N. Brothers, K. N. Kudin, 
 V. N. Staroverov, T. A. Keith, R. Kobayashi, J. Normand, 
 K. Raghavachari, A. P. Rendell, J. C. Burant, S. S. Iyengar, 
 J. Tomasi, M. Cossi, J. M. Millam, M. Klene, C. Adamo, R. Cammi, 
 J. W. Ochterski, R. L. Martin, K. Morokuma, O. Farkas, 
 J. B. Foresman, and D. J. Fox, Gaussian, Inc., Wallingford CT, 2019.
 
 ******************************************
 Gaussian 16:  ES64L-G16RevC.01  3-Jul-2019
                 5-Sep-2022 
 ******************************************
 %chk=in.chk
 %nproc=1
 Will use up to    1 processors via shared memory.
 %mem=2000MB
 ---------------------
 #p freq M062X/Def2SVP
 ---------------------
 1/10=4,30=1,38=1/1,3;
 2/12=2,17=6,18=5,40=1/2;
 3/5=43,7=101,11=2,25=1,30=1,71=2,74=-55,140=1/1,2,3;
 4//1;
 5/5=2,38=5,98=1/2;
 8/6=4,10=90,11=11/1;
 11/6=1,8=1,9=11,15=111,16=1/1,2,10;
 10/6=1/2;
 6/7=2,8=2,9=2,10=2,28=1/1;
 7/8=1,10=1,25=1/1,2,3,16;
 1/10=4,30=1/3;
 99//99;
 Leave Link    1 at Mon Sep  5 10:33:55 2022, MaxMem=   262144000 cpu:               0.0 elap:               0.0
 (Enter /binaries/g16/l101.exe)
 -----------------------
 File created by ccinput
 -----------------------
 Symbolic Z-matrix:
 Charge = -1 Multiplicity = 1
 Cl                    0.        0.        0. 
 
 ITRead=  0
 MicOpt= -1
 NAtoms=      1 NQM=        1 NQMF=       0 NMMI=      0 NMMIF=      0
                NMic=       0 NMicF=      0.
                    Isotopes and Nuclear Properties:
 (Nuclear quadrupole moments (NQMom) in fm**2, nuclear magnetic moments (NMagM)
  in nuclear magnetons)

  Atom         1
 IAtWgt=          35
 AtmWgt=  34.9688527
 NucSpn=           3
 AtZEff=  -0.0000000
 NQMom=   -8.1650000
 NMagM=    0.8218740
 AtZNuc=  17.0000000
 Leave Link  101 at Mon Sep  5 10:33:55 2022, MaxMem=   262144000 cpu:               0.0 elap:               0.0
 (Enter /binaries/g16/l103.exe)

 GradGradGradGradGradGradGradGradGradGradGradGradGradGradGradGradGradGrad
 Berny optimization.
 Initialization pass.
 Trust Radius=3.00D-01 FncErr=1.00D-07 GrdErr=1.00D-07 EigMax=2.50D+02 EigMin=1.00D-04
 Number of steps in this run=      2 maximum allowed number of steps=      2.
 GradGradGradGradGradGradGradGradGradGradGradGradGradGradGradGradGradGrad

 Leave Link  103 at Mon Sep  5 10:33:55 2022, MaxMem=   262144000 cpu:               0.0 elap:               0.0
 (Enter /binaries/g16/l202.exe)
                          Input orientation:                          
 ---------------------------------------------------------------------
 Center     Atomic      Atomic             Coordinates (Angstroms)
 Number     Number       Type             X           Y           Z
 ---------------------------------------------------------------------
      1         17           0        0.000000    0.000000    0.000000
 ---------------------------------------------------------------------
 Stoichiometry    Cl(1-)
 Framework group  OH[O(Cl)]
 Deg. of freedom     0
 Full point group                 OH      NOp  48
 Largest Abelian subgroup         D2H     NOp   8
 Largest concise Abelian subgroup C1      NOp   1
                         Standard orientation:                         
 ---------------------------------------------------------------------
 Center     Atomic      Atomic             Coordinates (Angstroms)
 Number     Number       Type             X           Y           Z
 ---------------------------------------------------------------------
      1         17           0        0.000000    0.000000    0.000000
 ---------------------------------------------------------------------
 Leave Link  202 at Mon Sep  5 10:33:55 2022, MaxMem=   262144000 cpu:               0.0 elap:               0.0
 (Enter /binaries/g16/l301.exe)
 Standard basis: def2SVP (5D, 7F)
 Ernie: Thresh=  0.10000D-02 Tol=  0.10000D-05 Strict=F.
 There are     7 symmetry adapted cartesian basis functions of AG  symmetry.
 There are     1 symmetry adapted cartesian basis functions of B1G symmetry.
 There are     1 symmetry adapted cartesian basis functions of B2G symmetry.
 There are     1 symmetry adapted cartesian basis functions of B3G symmetry.
 There are     0 symmetry adapted cartesian basis functions of AU  symmetry.
 There are     3 symmetry adapted cartesian basis functions of B1U symmetry.
 There are     3 symmetry adapted cartesian basis functions of B2U symmetry.
 There are     3 symmetry adapted cartesian basis functions of B3U symmetry.
 There are     6 symmetry adapted basis functions of AG  symmetry.
 There are     1 symmetry adapted basis functions of B1G symmetry.
 There are     1 symmetry adapted basis functions of B2G symmetry.
 There are     1 symmetry adapted basis functions of B3G symmetry.
 There are     0 symmetry adapted basis functions of AU  symmetry.
 There are     3 symmetry adapted basis functions of B1U symmetry.
 There are     3 symmetry adapted basis functions of B2U symmetry.
 There are     3 symmetry adapted basis functions of B3U symmetry.
    18 basis functions,    37 primitive gaussians,    19 cartesian basis functions
     9 alpha electrons        9 beta electrons
       nuclear repulsion energy         0.0000000000 Hartrees.
 IExCor= 4336 DFT=T Ex+Corr=M062X ExCW=0 ScaHFX=  0.540000
 ScaDFX=  1.000000  1.000000  1.000000  1.000000 ScalE2=  1.000000  1.000000
 IRadAn=      5 IRanWt=     -1 IRanGd=            0 ICorTp=0 IEmpDi=  4
 NAtoms=    1 NActive=    1 NUniq=    1 SFac= 1.00D+00 NAtFMM=   60 NAOKFM=F Big=F
 Integral buffers will be    131072 words long.
 Raffenetti 2 integral format.
 Two-electron integral symmetry is turned on.
 Leave Link  301 at Mon Sep  5 10:33:55 2022, MaxMem=   262144000 cpu:               0.0 elap:               0.0
 (Enter /binaries/g16/l302.exe)
 NPDir=0 NMtPBC=     1 NCelOv=     1 NCel=       1 NClECP=     1 NCelD=      1
         NCelK=      1 NCelE2=     1 NClLst=     1 CellRange=     0.0.
 One-electron integrals computed using PRISM.
 One-electron integral symmetry used in STVInt
  48 Symmetry operations used in ECPInt.
 ECPInt:  NShTT=      36 NPrTT=     194 LenC2=      37 LenP2D=     194.
 LDataN:  DoStor=T MaxTD1= 4 Len=   56
 NBasis=    18 RedAO= T EigKep=  1.16D-01  NBF=     6     1     1     1     0     3     3     3
 NBsUse=    18 1.00D-06 EigRej= -1.00D+00 NBFU=     6     1     1     1     0     3     3     3
 Precomputing XC quadrature grid using
 IXCGrd= 4 IRadAn=           5 IRanWt=          -1 IRanGd=           0 AccXCQ= 0.00D+00.
 Generated NRdTot=       0 NPtTot=           0 NUsed=           0 NTot=          32
 NSgBfM=    19    19    19    19    19 MxSgAt=     1 MxSgA2=     1.
 Leave Link  302 at Mon Sep  5 10:33:55 2022, MaxMem=   262144000 cpu:               0.1 elap:               0.1
 (Enter /binaries/g16/l303.exe)
 DipDrv:  MaxL=1.
 Leave Link  303 at Mon Sep  5 10:33:55 2022, MaxMem=   262144000 cpu:               0.0 elap:               0.0
 (Enter /binaries/g16/l401.exe)
 ExpMin= 1.68D-01 ExpMax= 1.04D+04 ExpMxC= 1.57D+03 IAcc=3 IRadAn=         5 AccDes= 0.00D+00
 Harris functional with IExCor= 1009 and IRadAn=       5 diagonalized for initial guess.
 HarFok:  IExCor= 1009 AccDes= 0.00D+00 IRadAn=         5 IDoV= 1 UseB2=F ITyADJ=14
 ICtDFT=  3500011 ScaDFX=  1.000000  1.000000  1.000000  1.000000
 FoFCou: FMM=F IPFlag=           0 FMFlag=      100000 FMFlg1=           0
         NFxFlg=           0 DoJE=T BraDBF=F KetDBF=T FulRan=T
         wScrn=  0.000000 ICntrl=       500 IOpCl=  0 I1Cent=   200000004 NGrid=           0
         NMat0=    1 NMatS0=      1 NMatT0=    0 NMatD0=    1 NMtDS0=    0 NMtDT0=    0
 Petite list used in FoFCou.
 Harris En= -459.982566548938    
 JPrj=0 DoOrth=F DoCkMO=F.
 Initial guess orbital symmetries:
       Occupied  (A1G) (A1G) (T1U) (T1U) (T1U) (A1G) (T1U) (T1U)
                 (T1U)
       Virtual   (A1G) (T2G) (T2G) (T2G) (EG) (EG) (T1U) (T1U)
                 (T1U)
 The electronic state of the initial guess is 1-A1G.
 Leave Link  401 at Mon Sep  5 10:33:55 2022, MaxMem=   262144000 cpu:               0.1 elap:               0.1
 (Enter /binaries/g16/l502.exe)
 Keep R1 ints in memory in symmetry-blocked form, NReq=881470.
 FoFCou: FMM=F IPFlag=           0 FMFlag=           0 FMFlg1=           0
         NFxFlg=           0 DoJE=F BraDBF=F KetDBF=F FulRan=T
         wScrn=  0.000000 ICntrl=       600 IOpCl=  0 I1Cent=           0 NGrid=           0
         NMat0=    1 NMatS0=    171 NMatT0=    0 NMatD0=    1 NMtDS0=    0 NMtDT0=    0
 Petite list used in FoFCou.
 Closed shell SCF:
 Using DIIS extrapolation, IDIIS=  1040.
 NGot=   262144000 LenX=   262137515 LenY=   262136633
 Requested convergence on RMS density matrix=1.00D-08 within 128 cycles.
 Requested convergence on MAX density matrix=1.00D-06.
 Requested convergence on             energy=1.00D-06.
 No special actions if energy rises.
 Integral accuracy reduced to 1.0D-05 until final iterations.

 Cycle   1  Pass 0  IDiag  1:
 E= -460.045197310830    
 DIIS: error= 4.23D-02 at cycle   1 NSaved=   1.
 NSaved= 1 IEnMin= 1 EnMin= -460.045197310830     IErMin= 1 ErrMin= 4.23D-02
 ErrMax= 4.23D-02  0.00D+00 EMaxC= 1.00D-01 BMatC= 2.86D-02 BMatP= 2.86D-02
 IDIUse=3 WtCom= 5.77D-01 WtEn= 4.23D-01
 Coeff-Com:  0.100D+01
 Coeff-En:   0.100D+01
 Coeff:      0.100D+01
 Gap=     0.821 Goal=   None    Shift=    0.000
 GapD=    0.821 DampG=2.000 DampE=0.500 DampFc=1.0000 IDamp=-1.
 RMSDP=1.59D-02 MaxDP=1.49D-01              OVMax= 0.00D+00

 Cycle   2  Pass 0  IDiag  1:
 E= -460.062820595495     Delta-E=       -0.017623284665 Rises=F Damp=F
 DIIS: error= 1.54D-02 at cycle   2 NSaved=   2.
 NSaved= 2 IEnMin= 2 EnMin= -460.062820595495     IErMin= 2 ErrMin= 1.54D-02
 ErrMax= 1.54D-02  0.00D+00 EMaxC= 1.00D-01 BMatC= 5.57D-03 BMatP= 2.86D-02
 IDIUse=3 WtCom= 8.46D-01 WtEn= 1.54D-01
 Coeff-Com:  0.269D+00 0.731D+00
 Coeff-En:   0.000D+00 0.100D+01
 Coeff:      0.228D+00 0.772D+00
 Gap=     0.834 Goal=   None    Shift=    0.000
 RMSDP=6.35D-03 MaxDP=5.03D-02 DE=-1.76D-02 OVMax= 0.00D+00

 Cycle   3  Pass 0  IDiag  1:
 E= -460.067730656071     Delta-E=       -0.004910060577 Rises=F Damp=F
 DIIS: error= 3.38D-03 at cycle   3 NSaved=   3.
 NSaved= 3 IEnMin= 3 EnMin= -460.067730656071     IErMin= 3 ErrMin= 3.38D-03
 ErrMax= 3.38D-03  0.00D+00 EMaxC= 1.00D-01 BMatC= 2.44D-04 BMatP= 5.57D-03
 IDIUse=3 WtCom= 9.66D-01 WtEn= 3.38D-02
 Coeff-Com:  0.826D-02 0.181D+00 0.811D+00
 Coeff-En:   0.000D+00 0.000D+00 0.100D+01
 Coeff:      0.798D-02 0.175D+00 0.817D+00
 Gap=     0.835 Goal=   None    Shift=    0.000
 RMSDP=1.14D-03 MaxDP=9.75D-03 DE=-4.91D-03 OVMax= 0.00D+00

 Cycle   4  Pass 0  IDiag  1:
 E= -460.067944737131     Delta-E=       -0.000214081060 Rises=F Damp=F
 DIIS: error= 5.78D-05 at cycle   4 NSaved=   4.
 NSaved= 4 IEnMin= 4 EnMin= -460.067944737131     IErMin= 4 ErrMin= 5.78D-05
 ErrMax= 5.78D-05  0.00D+00 EMaxC= 1.00D-01 BMatC= 5.01D-08 BMatP= 2.44D-04
 IDIUse=1 WtCom= 1.00D+00 WtEn= 0.00D+00
 Coeff-Com: -0.207D-02-0.353D-01-0.141D+00 0.118D+01
 Coeff:     -0.207D-02-0.353D-01-0.141D+00 0.118D+01
 Gap=     0.835 Goal=   None    Shift=    0.000
 RMSDP=1.65D-05 MaxDP=1.36D-04 DE=-2.14D-04 OVMax= 0.00D+00

 Cycle   5  Pass 0  IDiag  1:
 E= -460.067944781972     Delta-E=       -0.000000044841 Rises=F Damp=F
 DIIS: error= 4.86D-06 at cycle   5 NSaved=   5.
 NSaved= 5 IEnMin= 5 EnMin= -460.067944781972     IErMin= 5 ErrMin= 4.86D-06
 ErrMax= 4.86D-06  0.00D+00 EMaxC= 1.00D-01 BMatC= 4.90D-10 BMatP= 5.01D-08
 IDIUse=1 WtCom= 1.00D+00 WtEn= 0.00D+00
 Coeff-Com:  0.127D-03 0.793D-03 0.399D-02-0.203D-01 0.102D+01
 Coeff:      0.127D-03 0.793D-03 0.399D-02-0.203D-01 0.102D+01
 Gap=     0.835 Goal=   None    Shift=    0.000
 RMSDP=1.74D-06 MaxDP=1.64D-05 DE=-4.48D-08 OVMax= 0.00D+00

 Initial convergence to 1.0D-05 achieved.  Increase integral accuracy.
 Cycle   6  Pass 1  IDiag  1:
 E= -460.067960714626     Delta-E=       -0.000015932654 Rises=F Damp=F
 DIIS: error= 4.16D-05 at cycle   1 NSaved=   1.
 NSaved= 1 IEnMin= 1 EnMin= -460.067960714626     IErMin= 1 ErrMin= 4.16D-05
 ErrMax= 4.16D-05  0.00D+00 EMaxC= 1.00D-01 BMatC= 4.18D-08 BMatP= 4.18D-08
 IDIUse=1 WtCom= 1.00D+00 WtEn= 0.00D+00
 Coeff-Com:  0.100D+01
 Coeff:      0.100D+01
 Gap=     0.835 Goal=   None    Shift=    0.000
 RMSDP=1.74D-06 MaxDP=1.64D-05 DE=-1.59D-05 OVMax= 0.00D+00

 Cycle   7  Pass 1  IDiag  1:
 E= -460.067960742364     Delta-E=       -0.000000027738 Rises=F Damp=F
 DIIS: error= 2.47D-05 at cycle   2 NSaved=   2.
 NSaved= 2 IEnMin= 2 EnMin= -460.067960742364     IErMin= 2 ErrMin= 2.47D-05
 ErrMax= 2.47D-05  0.00D+00 EMaxC= 1.00D-01 BMatC= 1.33D-08 BMatP= 4.18D-08
 IDIUse=1 WtCom= 1.00D+00 WtEn= 0.00D+00
 Coeff-Com:  0.360D+00 0.640D+00
 Coeff:      0.360D+00 0.640D+00
 Gap=     0.835 Goal=   None    Shift=    0.000
 RMSDP=8.00D-06 MaxDP=6.31D-05 DE=-2.77D-08 OVMax= 0.00D+00

 Cycle   8  Pass 1  IDiag  1:
 E= -460.067960754380     Delta-E=       -0.000000012016 Rises=F Damp=F
 DIIS: error= 3.84D-07 at cycle   3 NSaved=   3.
 NSaved= 3 IEnMin= 3 EnMin= -460.067960754380     IErMin= 3 ErrMin= 3.84D-07
 ErrMax= 3.84D-07  0.00D+00 EMaxC= 1.00D-01 BMatC= 1.84D-12 BMatP= 1.33D-08
 IDIUse=1 WtCom= 1.00D+00 WtEn= 0.00D+00
 Coeff-Com: -0.188D-01-0.370D-01 0.106D+01
 Coeff:     -0.188D-01-0.370D-01 0.106D+01
 Gap=     0.835 Goal=   None    Shift=    0.000
 RMSDP=1.95D-07 MaxDP=2.04D-06 DE=-1.20D-08 OVMax= 0.00D+00

 Cycle   9  Pass 1  IDiag  1:
 E= -460.067960754383     Delta-E=       -0.000000000003 Rises=F Damp=F
 DIIS: error= 5.40D-08 at cycle   4 NSaved=   4.
 NSaved= 4 IEnMin= 4 EnMin= -460.067960754383     IErMin= 4 ErrMin= 5.40D-08
 ErrMax= 5.40D-08  0.00D+00 EMaxC= 1.00D-01 BMatC= 2.82D-14 BMatP= 1.84D-12
 IDIUse=1 WtCom= 1.00D+00 WtEn= 0.00D+00
 Coeff-Com: -0.156D-02-0.152D-02-0.758D-01 0.108D+01
 Coeff:     -0.156D-02-0.152D-02-0.758D-01 0.108D+01
 Gap=     0.835 Goal=   None    Shift=    0.000
 RMSDP=2.98D-08 MaxDP=3.55D-07 DE=-3.01D-12 OVMax= 0.00D+00

 Cycle  10  Pass 1  IDiag  1:
 E= -460.067960754383     Delta-E=        0.000000000000 Rises=F Damp=F
 DIIS: error= 9.59D-10 at cycle   5 NSaved=   5.
 NSaved= 5 IEnMin= 4 EnMin= -460.067960754383     IErMin= 5 ErrMin= 9.59D-10
 ErrMax= 9.59D-10  0.00D+00 EMaxC= 1.00D-01 BMatC= 2.20D-17 BMatP= 2.82D-14
 IDIUse=1 WtCom= 1.00D+00 WtEn= 0.00D+00
 Coeff-Com:  0.737D-04 0.692D-04-0.549D-04-0.340D-01 0.103D+01
 Coeff:      0.737D-04 0.692D-04-0.549D-04-0.340D-01 0.103D+01
 Gap=     0.835 Goal=   None    Shift=    0.000
 RMSDP=5.01D-10 MaxDP=4.74D-09 DE= 1.14D-13 OVMax= 0.00D+00

 SCF Done:  E(RM062X) =  -460.067960754     A.U. after   10 cycles
            NFock= 10  Conv=0.50D-09     -V/T= 2.0012
 KE= 4.595094111929D+02 PE=-1.101929540920D+03 EE= 1.823521689725D+02
 Leave Link  502 at Mon Sep  5 10:33:55 2022, MaxMem=   262144000 cpu:               0.1 elap:               0.1
 (Enter /binaries/g16/l801.exe)
 DoSCS=F DFT=T ScalE2(SS,OS)=  1.000000  1.000000
 Range of M.O.s used for correlation:     1    18
 NBasis=    18 NAE=     9 NBE=     9 NFC=     0 NFV=     0
 NROrb=     18 NOA=     9 NOB=     9 NVA=     9 NVB=     9
 Leave Link  801 at Mon Sep  5 10:33:55 2022, MaxMem=   262144000 cpu:               0.0 elap:               0.0
 (Enter /binaries/g16/l1101.exe)
 Using compressed storage, NAtomX=     1.
 Will process      2 centers per pass.
  48 Symmetry operations used in ECPInt.
 ECPInt:  NShTT=      36 NPrTT=     194 LenC2=      37 LenP2D=     194.
 LDataN:  DoStor=T MaxTD1= 5 Len=  102
 Leave Link 1101 at Mon Sep  5 10:33:55 2022, MaxMem=   262144000 cpu:               0.1 elap:               0.1
 (Enter /binaries/g16/l1102.exe)
 Symmetrizing basis deriv contribution to polar:
 IMax=3 JMax=2 DiffMx= 0.00D+00
 Leave Link 1102 at Mon Sep  5 10:33:55 2022, MaxMem=   262144000 cpu:               0.0 elap:               0.0
 (Enter /binaries/g16/l1110.exe)
 Forming Gx(P) for the SCF density, NAtomX=     1.
 Integral derivatives from FoFJK, PRISM(SPDF).
 Do as many integral derivatives as possible in FoFJK.
 G2DrvN: MDV=     262143767.
 G2DrvN: will do     2 centers at a time, making    1 passes.
 Calling FoFCou, ICntrl=  3107 FMM=F I1Cent=   0 AccDes= 0.00D+00.
 FoFJK:  IHMeth= 1 ICntrl=    3107 DoSepK=F KAlg= 0 I1Cent=           0 FoldK=F
 IRaf=         0 NMat=       1 IRICut=       1 DoRegI=T DoRafI=F ISym2E= 1 IDoP0=0 IntGTp=1.
 FoFCou: FMM=F IPFlag=           0 FMFlag=      100000 FMFlg1=           0
         NFxFlg=           0 DoJE=F BraDBF=F KetDBF=F FulRan=T
         wScrn=  0.000000 ICntrl=      3107 IOpCl=  0 I1Cent=           0 NGrid=           0
         NMat0=    1 NMatS0=      1 NMatT0=    0 NMatD0=    1 NMtDS0=    0 NMtDT0=    0
 Petite list used in FoFCou.
 End of G2Drv F.D. properties file   721 does not exist.
 End of G2Drv F.D. properties file   722 does not exist.
 End of G2Drv F.D. properties file   788 does not exist.
 Leave Link 1110 at Mon Sep  5 10:33:55 2022, MaxMem=   262144000 cpu:               0.1 elap:               0.1
 (Enter /binaries/g16/l1002.exe)
 Minotr:  Closed shell wavefunction.
          IDoAtm=1
          Direct CPHF calculation.
          Differentiating once with respect to electric field.
                with respect to dipole field.
          Differentiating once with respect to nuclear coordinates.
          Using symmetry in CPHF.
          Requested convergence is 1.0D-08 RMS, and 1.0D-07 maximum.
          Secondary convergence is 1.0D-12 RMS, and 1.0D-12 maximum.
          NewPWx=T KeepS1=F KeepF1=F KeepIn=T MapXYZ=F SortEE=F KeepMc=T.
          271 words used for storage of precomputed grid.
 Keep R1 ints in memory in symmetry-blocked form, NReq=879290.
 FoFCou: FMM=F IPFlag=           0 FMFlag=           0 FMFlg1=           0
         NFxFlg=           0 DoJE=F BraDBF=F KetDBF=F FulRan=T
         wScrn=  0.000000 ICntrl=       600 IOpCl=  0 I1Cent=           0 NGrid=           0
         NMat0=    1 NMatS0=    171 NMatT0=    0 NMatD0=    1 NMtDS0=    0 NMtDT0=    0
 Petite list used in FoFCou.
          MDV=     262144000 using IRadAn=       1.
          Solving linear equations simultaneously, MaxMat=       0.
 FoF2E skips out because all densities are zero.
 CalDSu exits because no D1Ps are significant.
          There are     6 degrees of freedom in the 1st order CPHF.  IDoFFX=6 NUNeed=     3.
      3 vectors produced by pass  0 Test12= 1.35D-15 1.67D-08 XBig12= 1.58D+00 7.64D-01.
 AX will form     3 AO Fock derivatives at one time.
      3 vectors produced by pass  1 Test12= 1.35D-15 1.67D-08 XBig12= 1.33D-01 2.68D-01.
      3 vectors produced by pass  2 Test12= 1.35D-15 1.67D-08 XBig12= 1.81D-04 1.21D-02.
      3 vectors produced by pass  3 Test12= 1.35D-15 1.67D-08 XBig12= 8.59D-08 1.36D-04.
      3 vectors produced by pass  4 Test12= 1.35D-15 1.67D-08 XBig12= 2.70D-12 9.63D-07.
 InvSVY:  IOpt=1 It=  1 EMax= 2.22D-16
 Solved reduced A of dimension    15 with     3 vectors.
 FullF1:  Do perturbations      1 to       3.
 Isotropic polarizability for W=    0.000000        6.16 Bohr**3.
 End of Minotr F.D. properties file   721 does not exist.
 End of Minotr F.D. properties file   722 does not exist.
 End of Minotr F.D. properties file   788 does not exist.
 Leave Link 1002 at Mon Sep  5 10:33:55 2022, MaxMem=   262144000 cpu:               0.1 elap:               0.1
 (Enter /binaries/g16/l601.exe)
 Copying SCF densities to generalized density rwf, IOpCl= 0 IROHF=0.

 **********************************************************************

            Population analysis using the SCF Density.

 **********************************************************************

 Orbital symmetries:
       Occupied  (A1G) (A1G) (T1U) (T1U) (T1U) (A1G) (T1U) (T1U)
                 (T1U)
       Virtual   (A1G) (T2G) (T2G) (T2G) (EG) (EG) (T1U) (T1U)
                 (T1U)
 The electronic state is 1-A1G.
 Alpha  occ. eigenvalues -- -102.21210  -9.37899  -7.10264  -7.10264  -7.10264
 Alpha  occ. eigenvalues --   -0.48365  -0.00617  -0.00617  -0.00617
 Alpha virt. eigenvalues --    0.82848   1.24141   1.24141   1.24141   1.24141
 Alpha virt. eigenvalues --    1.24141   1.27706   1.27706   1.27706
          Condensed to atoms (all electrons):
               1
     1  Cl  18.000000
 Mulliken charges:
               1
     1  Cl  -1.000000
 Sum of Mulliken charges =  -1.00000
 Mulliken charges with hydrogens summed into heavy atoms:
               1
     1  Cl  -1.000000
 APT charges:
               1
     1  Cl  -1.000000
 Sum of APT charges =  -1.00000
 APT charges with hydrogens summed into heavy atoms:
               1
     1  Cl  -1.000000
 Electronic spatial extent (au):  <R**2>=             32.6786
 Charge=             -1.0000 electrons
 Dipole moment (field-independent basis, Debye):
    X=              0.0000    Y=              0.0000    Z=              0.0000  Tot=              0.0000
 Quadrupole moment (field-independent basis, Debye-Ang):
   XX=            -14.6513   YY=            -14.6513   ZZ=            -14.6513
   XY=             -0.0000   XZ=              0.0000   YZ=              0.0000
 Traceless Quadrupole moment (field-independent basis, Debye-Ang):
   XX=              0.0000   YY=              0.0000   ZZ=              0.0000
   XY=             -0.0000   XZ=              0.0000   YZ=              0.0000
 Octapole moment (field-independent basis, Debye-Ang**2):
  XXX=              0.0000  YYY=              0.0000  ZZZ=              0.0000  XYY=              0.0000
  XXY=              0.0000  XXZ=              0.0000  XZZ=              0.0000  YZZ=              0.0000
  YYZ=              0.0000  XYZ=              0.0000
 Hexadecapole moment (field-independent basis, Debye-Ang**3):
 XXXX=            -15.3690 YYYY=            -15.3690 ZZZZ=            -15.3690 XXXY=             -0.0000
 XXXZ=             -0.0000 YYYX=             -0.0000 YYYZ=              0.0000 ZZZX=             -0.0000
 ZZZY=              0.0000 XXYY=             -5.1230 XXZZ=             -5.1230 YYZZ=             -5.1230
 XXYZ=              0.0000 YYXZ=             -0.0000 ZZXY=             -0.0000
 N-N= 0.000000000000D+00 E-N=-1.101929540873D+03  KE= 4.595094111929D+02
 Symmetry AG   KE= 3.233526861870D+02
 Symmetry B1G  KE= 4.113402075839D-61
 Symmetry B2G  KE= 4.311942935034D-61
 Symmetry B3G  KE= 3.353984460566D-61
 Symmetry AU   KE= 0.000000000000D+00
 Symmetry B1U  KE= 4.538557500197D+01
 Symmetry B2U  KE= 4.538557500197D+01
 Symmetry B3U  KE= 4.538557500197D+01
  Exact polarizability:       6.163      -0.000       6.163      -0.000      -0.000       6.163
 Approx polarizability:       6.970      -0.000       6.970      -0.000      -0.000       6.970
 No NMR shielding tensors so no spin-rotation constants.
 Leave Link  601 at Mon Sep  5 10:33:56 2022, MaxMem=   262144000 cpu:               0.1 elap:               0.1
 (Enter /binaries/g16/l701.exe)
 ... and contract with generalized density number  0.
 Compute integral second derivatives.
  48 Symmetry operations used in ECPInt.
 ECPInt:  NShTT=      36 NPrTT=     194 LenC2=      37 LenP2D=     194.
 LDataN:  DoStor=T MaxTD1= 6 Len=  172
 Leave Link  701 at Mon Sep  5 10:33:56 2022, MaxMem=   262144000 cpu:               0.1 elap:               0.1
 (Enter /binaries/g16/l702.exe)
 L702 exits ... SP integral derivatives will be done elsewhere.
 Leave Link  702 at Mon Sep  5 10:33:56 2022, MaxMem=   262144000 cpu:               0.0 elap:               0.0
 (Enter /binaries/g16/l703.exe)
 Integral derivatives from FoFJK, PRISM(SPDF).
 Compute integral second derivatives, UseDBF=F ICtDFT=           0.
 Calling FoFJK, ICntrl=    100127 FMM=F ISym2X=1 I1Cent= 0 IOpClX= 0 NMat=1 NMatS=1 NMatT=0.
 FoFJK:  IHMeth= 1 ICntrl=  100127 DoSepK=F KAlg= 0 I1Cent=           0 FoldK=F
 IRaf=         0 NMat=       1 IRICut=       1 DoRegI=T DoRafI=F ISym2E= 1 IDoP0=0 IntGTp=1.
 FoFCou: FMM=F IPFlag=           0 FMFlag=      100000 FMFlg1=         800
         NFxFlg=           0 DoJE=F BraDBF=F KetDBF=F FulRan=T
         wScrn=  0.000000 ICntrl=    100127 IOpCl=  0 I1Cent=           0 NGrid=           0
         NMat0=    1 NMatS0=      1 NMatT0=    0 NMatD0=    1 NMtDS0=    0 NMtDT0=    0
 Petite list used in FoFCou.
 Leave Link  703 at Mon Sep  5 10:33:56 2022, MaxMem=   262144000 cpu:               0.1 elap:               0.1
 (Enter /binaries/g16/l716.exe)
 Dipole        = 0.00000000D+00 0.00000000D+00 0.00000000D+00
 Polarizability= 6.16257831D+00-6.52963924D-13 6.16257831D+00
                -1.20519573D-21-5.70597064D-21 6.16257831D+00
 Full mass-weighted force constant matrix:
 Low frequencies ---    0.0000    0.0000    0.0000
 Diagonal vibrational polarizability:
        0.0000000       0.0000000       0.0000000
 Harmonic frequencies (cm**-1), IR intensities (KM/Mole), Raman scattering
 activities (A**4/AMU), depolarization ratios for plane and unpolarized
 incident light, reduced masses (AMU), force constants (mDyne/A),
 and normal coordinates:

 -------------------
 - Thermochemistry -
 -------------------
 Temperature   298.150 Kelvin.  Pressure   1.00000 Atm.
 Atom     1 has atomic number 17 and mass  34.96885
 Molecular mass:    34.96885 amu.
 Zero-point vibrational energy          0.0 (Joules/Mol)
                                    0.00000 (Kcal/Mol)
 Vibrational temperatures: 
          (Kelvin)
 
 Zero-point correction=                           0.000000 (Hartree/Particle)
 Thermal correction to Energy=                    0.001416
 Thermal correction to Enthalpy=                  0.002360
 Thermal correction to Gibbs Free Energy=        -0.015023
 Sum of electronic and zero-point Energies=           -460.067961
 Sum of electronic and thermal Energies=              -460.066544
 Sum of electronic and thermal Enthalpies=            -460.065600
 Sum of electronic and thermal Free Energies=         -460.082983
 
                     E (Thermal)             CV                S
                      KCal/Mol        Cal/Mol-Kelvin    Cal/Mol-Kelvin
 Total                    0.889              2.981             36.586
 Electronic               0.000              0.000              0.000
 Translational            0.889              2.981             36.586
 Rotational               0.000              0.000              0.000
 Vibrational              0.000              0.000              0.000
                       Q            Log10(Q)             Ln(Q)
 Total Bot       0.812786D+07          6.909976         15.910808
 Total V=0       0.812786D+07          6.909976         15.910808
 Vib (Bot)       0.100000D+01          0.000000          0.000000
 Vib (V=0)       0.100000D+01          0.000000          0.000000
 Electronic      0.100000D+01          0.000000          0.000000
 Translational   0.812786D+07          6.909976         15.910808
 Rotational      0.100000D+01          0.000000          0.000000
 ***** Axes restored to original set *****
 -------------------------------------------------------------------
 Center     Atomic                   Forces (Hartrees/Bohr)
 Number     Number              X              Y              Z
 -------------------------------------------------------------------
      1       17          -0.000000000   -0.000000000   -0.000000000
 -------------------------------------------------------------------
 Cartesian Forces:  Max     0.000000000 RMS     0.000000000
 Z-matrix is all fixed cartesians, so copy forces.
 Force constants in Cartesian coordinates: 
                1             2             3 
      1  0.000000D+00
      2  0.000000D+00  0.000000D+00
      3  0.000000D+00  0.000000D+00  0.000000D+00
 Leave Link  716 at Mon Sep  5 10:33:56 2022, MaxMem=   262144000 cpu:               0.0 elap:               0.0
 (Enter /binaries/g16/l103.exe)

 GradGradGradGradGradGradGradGradGradGradGradGradGradGradGradGradGradGrad
 Berny optimization.
 Search for a local minimum.
 Step number   1 out of a maximum of    2
 All quantities printed in internal units (Hartrees-Bohrs-Radians)
 Second derivative matrix not updated -- analytic derivatives used.
 The second derivative matrix:
                          X1        Y1        Z1
           X1          -0.00000
           Y1           0.00000  -0.00000
           Z1          -0.00000  -0.00000  -0.00000
 ITU=  0
     Eigenvalues --- 
 Angle between quadratic step and forces=  90.00 degrees.
 ClnCor:  largest displacement from symmetrization is 0.00D+00 for atom     0.
 Linear search not attempted -- first point.
 ClnCor:  largest displacement from symmetrization is 0.00D+00 for atom     0.
 B after Tr=     0.000000    0.000000    0.000000
         Rot=    1.000000    0.000000    0.000000    0.000000 Ang=   0.00 deg.
 Variable       Old X    -DE/DX   Delta X   Delta X   Delta X     New X
                                 (Linear)    (Quad)   (Total)
    X1        0.00000  -0.00000   0.00000   0.00000   0.00000   0.00000
    Y1        0.00000  -0.00000   0.00000   0.00000   0.00000   0.00000
    Z1        0.00000  -0.00000   0.00000   0.00000   0.00000   0.00000
         Item               Value     Threshold  Converged?
 Maximum Force            0.000000     0.000450     YES
 RMS     Force            0.000000     0.000300     YES
 Maximum Displacement     0.000000     0.001800     YES
 RMS     Displacement     0.000000     0.001200     YES
 Predicted change in Energy=-0.000000D+00
 Optimization completed.
    -- Stationary point found.
 GradGradGradGradGradGradGradGradGradGradGradGradGradGradGradGradGradGrad

 Leave Link  103 at Mon Sep  5 10:33:56 2022, MaxMem=   262144000 cpu:               0.0 elap:               0.0
 (Enter /binaries/g16/l9999.exe)
 Dipole is zero, so no output in dipole orientation.

 ----------------------------------------------------------------------

 Electric dipole moment (input orientation):
 (Debye = 10**-18 statcoulomb cm , SI units = C m)
                  (au)            (Debye)         (10**-30 SI)
   Tot        0.000000D+00      0.000000D+00      0.000000D+00
   x          0.000000D+00      0.000000D+00      0.000000D+00
   y          0.000000D+00      0.000000D+00      0.000000D+00
   z          0.000000D+00      0.000000D+00      0.000000D+00

 Dipole polarizability, Alpha (input orientation).
 (esu units = cm**3 , SI units = C**2 m**2 J**-1)
 Alpha(0;0):
               (au)            (10**-24 esu)      (10**-40 SI)
   iso        0.616258D+01      0.913200D+00      0.101607D+01
   aniso      0.000000D+00      0.000000D+00      0.000000D+00
   xx         0.616258D+01      0.913200D+00      0.101607D+01
   yx         0.000000D+00      0.000000D+00      0.000000D+00
   yy         0.616258D+01      0.913200D+00      0.101607D+01
   zx         0.000000D+00      0.000000D+00      0.000000D+00
   zy         0.000000D+00      0.000000D+00      0.000000D+00
   zz         0.616258D+01      0.913200D+00      0.101607D+01

 ----------------------------------------------------------------------
 Unable to Open any file for archive entry.
 1\1\GINC-WEB\Freq\RM062X\def2SVP\Cl1(1-)\CALCUS\05-Sep-2022\0\\#p freq
  M062X/Def2SVP\\File created by ccinput\\-1,1\Cl,0.,0.,0.\\Version=ES6
 4L-G16RevC.01\State=1-A1G\HF=-460.0679608\RMSD=5.015e-10\RMSF=0.000e+0
 0\Thermal=0.0014163\ETot=-460.0665445\HTot=-460.0656003\GTot=-460.0829
 835\Dipole=0.,0.,0.\DipoleDeriv=-1.,0.,0.,0.,-1.,0.,0.,0.,-1.\Polar=6.
 1625783,0.,6.1625783,0.,0.,6.1625783\Quadrupole=0.,0.,0.,0.,0.,0.\PG=O
 H [O(Cl1)]\NImag=0\\0.,0.,0.,0.,0.,0.\\0.,0.,0.\\\@
 The archive entry for this job was punched.


 IT TAKES GREATER CHARACTER TO CARRY OFF GOOD FORTUNE THAN BAD.
                     FRENCH PROVERB.
 Job cpu time:       0 days  0 hours  0 minutes  1.1 seconds.
 Elapsed time:       0 days  0 hours  0 minutes  1.1 seconds.
 File lengths (MBytes):  RWF=      6 Int=      0 D2E=      0 Chk=      1 Scr=      1
 Normal termination of Gaussian 16 at Mon Sep  5 10:33:56 2022.
