5
Coordinates from ORCA-job calc Relaxed Surface Scan Step 1
  C       4.527350      3.661233     -0.006076
  H       4.538789      2.555463     -0.004650
  H       4.539179      4.215365      0.950796
  H       4.504084      4.212672     -0.964317
  H       3.349698      3.649268      0.015246
>
5
Coordinates from ORCA-job calc Relaxed Surface Scan Step 2
  C       4.534324      3.659532     -0.003151
  H       4.533901      2.554216     -0.010533
  H       4.534314      4.221099      0.948894
  H       4.502731      4.211468     -0.962166
  H       3.353830      3.647685      0.017955
>
5
Coordinates from ORCA-job calc Relaxed Surface Scan Step 3
  C       4.541033      3.657753     -0.000063
  H       4.529021      2.553019     -0.016734
  H       4.529436      4.227064      0.946814
  H       4.501620      4.210157     -0.959886
  H       3.357990      3.646007      0.020869
>
5
Coordinates from ORCA-job calc Relaxed Surface Scan Step 4
  C       4.547513      3.655857      0.003227
  H       4.524185      2.551905     -0.023310
  H       4.524602      4.233312      0.944475
  H       4.500841      4.208735     -0.957414
  H       3.361958      3.644190      0.024023
>
5
Coordinates from ORCA-job calc Relaxed Surface Scan Step 5
  C       4.553739      3.653846      0.006719
  H       4.519397      2.550874     -0.030267
  H       4.519816      4.239848      0.941872
  H       4.500412      4.207207     -0.954758
  H       3.365735      3.642226      0.027434
>
5
Coordinates from ORCA-job calc Relaxed Surface Scan Step 6
  C       4.559689      3.651716      0.010416
  H       4.514665      2.549929     -0.037608
  H       4.515086      4.246673      0.939001
  H       4.500350      4.205576     -0.951923
  H       3.369311      3.640106      0.031114
>
5
Coordinates from ORCA-job calc Relaxed Surface Scan Step 7
  C       4.565338      3.649466      0.014321
  H       4.509996      2.549075     -0.045341
  H       4.510419      4.253790      0.935856
  H       4.500670      4.203846     -0.948915
  H       3.372676      3.637823      0.035078
>
5
Coordinates from ORCA-job calc Relaxed Surface Scan Step 8
  C       4.570661      3.647096      0.018436
  H       4.505400      2.548315     -0.053470
  H       4.505825      4.261203      0.932430
  H       4.501392      4.202018     -0.945737
  H       3.375821      3.635368      0.039342
>
5
Coordinates from ORCA-job calc Relaxed Surface Scan Step 9
  C       4.575630      3.644602      0.022767
  H       4.500886      2.547654     -0.062005
  H       4.501314      4.268918      0.928714
  H       4.502535      4.200095     -0.942395
  H       3.378736      3.632732      0.043919
>
5
Coordinates from ORCA-job calc Relaxed Surface Scan Step 10
  C       4.580214      3.641982      0.027315
  H       4.496464      2.547096     -0.070954
  H       4.496895      4.276938      0.924701
  H       4.504118      4.198079     -0.938890
  H       3.381410      3.629906      0.048828
