[Molden Format]
[Atoms] AU
   C     1    6      0.0748751431    -0.2118172864     0.0000000000
   H     2    1      0.7489404032     0.7413605023     1.6510535962
   H     3    1     -1.9471316647    -0.2118172864     0.0000000000
   H     4    1      0.7489404032     0.7413605023    -1.6510535962
[GTO]
    1  0
  s      5  0
      1238.4016938000         0.8208956694
       186.2900499200         1.4766449899
        42.2511763460         2.1526124054
        11.6765579320         2.1081722462
         3.5930506482         0.8290999933
  s      1  0
         0.4024514736         0.3601183351
  s      1  0
         0.1309018267         0.1551027052
  p      3  0
         9.4680970621         1.3467645151
         2.0103545142         1.0678070931
         0.5477100471         0.5108735714
  p      1  0
         0.1526861380         0.1360471977
  d      1  0
         0.8000000000         1.1138249281

    2  0
  s      3  0
        13.0107010000         0.1634903809
         1.9622572000         0.2773515510
         0.4445379600         0.3157501452
  s      1  0
         0.1219496200         0.1470772262
  p      1  0
         0.8000000000         1.0784563492

    3  0
  s      3  0
        13.0107010000         0.1634903809
         1.9622572000         0.2773515510
         0.4445379600         0.3157501452
  s      1  0
         0.1219496200         0.1470772262
  p      1  0
         0.8000000000         1.0784563492

    4  0
  s      3  0
        13.0107010000         0.1634903809
         1.9622572000         0.2773515510
         0.4445379600         0.3157501452
  s      1  0
         0.1219496200         0.1470772262
  p      1  0
         0.8000000000         1.0784563492

[MO]
Sym= a    
Ene=  -0.11699985242694E+02
Spin= Alpha
Occup=       2.00000000000000
     1    0.9928780264214447
     2    0.0277042499458398
     3   -0.0240505032818119
     4   -0.0002179809422949
     5    0.0006161607824756
     6   -0.0000000000000016
     7    0.0007021896852941
     8   -0.0019854070251561
     9    0.0000000000000025
    10    0.0041056974085021
    11    0.0020366445583313
    12    0.0044011899478609
    13    0.0009652681024561
    14    0.0000000000000002
    15    0.0000000000000003
    16   -0.0021946094567487
    17    0.0056339641665303
    18    0.0003709211777041
    19    0.0009226229640687
    20    0.0011383817419273
    21   -0.0021948334736590
    22    0.0056346642595229
    23   -0.0014878175134850
    24    0.0002654493154406
    25   -0.0000000000000002
    26   -0.0021946094567505
    27    0.0056339641665352
    28    0.0003709211777038
    29    0.0009226229640683
    30   -0.0011383817419269
Sym= a    
Ene=  -0.12849895599432E+01
Spin= Alpha
Occup=       2.00000000000000
     1   -0.2496169287579906
     2    0.4981562107573276
     3    0.1438441815403949
     4   -0.0227908652138964
     5    0.0644177698182057
     6    0.0000000000000259
     7   -0.0003110761812406
     8    0.0008824681288840
     9   -0.0000000000000466
    10    0.0341277825730368
    11    0.0187035571302935
    12    0.0363282625594272
    13    0.0071947721314240
    14   -0.0000000000000034
    15   -0.0000000000000045
    16    0.1976785332541784
    17    0.0170176702806209
    18   -0.0074359565412029
    19   -0.0091950352145963
    20   -0.0174506813038455
    21    0.1977023336636720
    22    0.0170203738832019
    23    0.0210635096112561
    24    0.0008796139602785
    25    0.0000000000000024
    26    0.1976785332542109
    27    0.0170176702805340
    28   -0.0074359565411963
    29   -0.0091950352145891
    30    0.0174506813038390
Sym= a    
Ene=  -0.94348234312198E+00
Spin= Alpha
Occup=       2.00000000000000
     1   -0.0000062656397292
     2    0.0000162396237764
     3    0.0000221420238987
     4    0.4776836968915295
     5    0.1688736075139719
     6   -0.0000000000592872
     7    0.1856258152453290
     8    0.0656265558180188
     9   -0.0000000000219477
    10   -0.0235747943203570
    11    0.0040941497415088
    12    0.0194845568555999
    13    0.0018719566561726
    14   -0.0000000000015913
    15   -0.0000000000022472
    16    0.1831017105927527
    17    0.0236708152850277
    18    0.0054925122265898
    19   -0.0038325246684997
    20   -0.0147900373420370
    21   -0.3661930622720041
    22   -0.0473410355491946
    23   -0.0241023710605844
    24    0.0030268966478183
    25   -0.0000000000016276
    26    0.1831017106673083
    27    0.0236708152970260
    28    0.0054925122239110
    29   -0.0038325246717729
    30    0.0147900373450463
Sym= a    
Ene=  -0.94347121630173E+00
Spin= Alpha
Occup=       2.00000000000000
     1    0.0000000000000039
     2   -0.0000000000000270
     3    0.0000000000000758
     4    0.0000000000559020
     5    0.0000000000197470
     6    0.5066513395463517
     7    0.0000000000206870
     8    0.0000000000073330
     9    0.1968941299665215
    10   -0.0000000000025968
    11    0.0000000000006443
    12    0.0000000000019481
    13    0.0000000000005301
    14    0.0173769374684676
    15    0.0183360446084220
    16    0.3171326095807545
    17    0.0410008185519614
    18   -0.0108014765286173
    19   -0.0138196969893781
    20   -0.0131774633073750
    21   -0.0000000000430269
    22   -0.0000000000069571
    23   -0.0000000000028280
    24    0.0000000000003427
    25    0.0124406352442456
    26   -0.3171326095376793
    27   -0.0410008185450876
    28    0.0108014765301435
    29    0.0138196969885737
    30   -0.0131774633037651
Sym= a    
Ene=  -0.32056481912266E+00
Spin= Alpha
Occup=       0.00000000000000
     1    0.0689780331244301
     2   -0.1435624279131610
     3   -0.3000426412626371
     4   -0.1636494473993503
     5    0.4628968747649461
     6   -0.0000000000000003
     7   -0.1750696178430705
     8    0.4952024045533152
     9    0.0000000000000054
    10   -0.0100662818035896
    11   -0.0146259459304786
    12   -0.0094151193773992
    13    0.0021264760938832
    14    0.0000000000000002
    15   -0.0000000000000008
    16    0.0814621472287651
    17    0.0597121623796012
    18   -0.0089846565121579
    19    0.0121802838169652
    20   -0.0076399430695608
    21    0.0814579452821483
    22    0.0597035583814736
    23    0.0034913707102488
    24    0.0165914834612064
    25   -0.0000000000000003
    26    0.0814621472287674
    27    0.0597121623796086
    28   -0.0089846565121583
    29    0.0121802838169655
    30    0.0076399430695607
Sym= a    
Ene=  -0.51462349469980E-01
Spin= Alpha
Occup=       0.00000000000000
     1   -0.1255489936050783
     2    0.2568195495586131
     3    2.4230659715411953
     4   -0.0367674675824990
     5    0.1041016201513380
     6    0.0000000000000015
     7   -0.1910950489281032
     8    0.5407563259836444
     9    0.0000000000000032
    10    0.0187613469742917
    11    0.0224971713939123
    12    0.0182220638851876
    13   -0.0017453674971799
    14    0.0000000000000000
    15   -0.0000000000000001
    16   -0.0285840066439723
    17   -1.2447663453030542
    18    0.0010869162980695
    19   -0.0015116975136786
    20    0.0008990535686886
    21   -0.0285541725621313
    22   -1.2446401677698289
    23   -0.0003846822181497
    24   -0.0020310007135690
    25    0.0000000000000039
    26   -0.0285840066439700
    27   -1.2447663453030542
    28    0.0010869162980632
    29   -0.0015116975136806
    30   -0.0008990535686911
Sym= a    
Ene=   0.49812642231653E-02
Spin= Alpha
Occup=       0.00000000000000
     1    0.0000000000000007
     2   -0.0000000000000041
     3   -0.0000000000000559
     4    0.0000000000684316
     5    0.0000000000241985
     6   -0.3466396804776096
     7    0.0000000002417159
     8    0.0000000000854429
     9   -1.2286269268461187
    10    0.0000000000043647
    11   -0.0000000000008187
    12   -0.0000000000035459
    13   -0.0000000000004455
    14    0.0151353325300085
    15    0.0166392036803850
    16    0.1184488129046745
    17    1.7151828583582081
    18    0.0043764556366362
    19    0.0060098100603581
    20   -0.0004364529565627
    21    0.0000000000282921
    22    0.0000000004132209
    23   -0.0000000000009598
    24    0.0000000000007483
    25   -0.0110529500721855
    26   -0.1184488129329806
    27   -1.7151828587713422
    28   -0.0043764556333569
    29   -0.0060098100602869
    30   -0.0004364529540057
Sym= a    
Ene=   0.49893779201653E-02
Spin= Alpha
Occup=       0.00000000000000
     1    0.0000075108448387
     2   -0.0000149361625673
     3   -0.0003126649773792
     4    0.3268093121034193
     5    0.1155353980011660
     6    0.0000000000725913
     7    1.1584161610079955
     8    0.4094832039324330
     9    0.0000000002563543
    10    0.0210437230244703
    11   -0.0038865503303799
    12   -0.0171608742311626
    13   -0.0020517096577733
    14   -0.0000000000031213
    15   -0.0000000000034672
    16   -0.0683870838909132
    17   -0.9901765961252081
    18    0.0078927418636453
    19    0.0002148512064322
    20   -0.0061291659871247
    21    0.1367484390027295
    22    1.9807788905939820
    23   -0.0045437246448695
    24    0.0035468754639281
    25    0.0000000000022986
    26   -0.0683870838418876
    27   -0.9901765954096090
    28    0.0078927418654673
    29    0.0002148512089624
    30    0.0061291659872862
Sym= a    
Ene=   0.28107083605230E+00
Spin= Alpha
Occup=       0.00000000000000
     1   -0.0000013687547868
     2    0.0000140324383669
     3   -0.0001735014145743
     4   -0.3018485949606561
     5   -0.1067011689877109
     6   -0.0000000000496546
     7    1.2877918785278737
     8    0.4552274337393880
     9    0.0000000002116936
    10    0.0854646285284762
    11   -0.0171306749824001
    12   -0.0683374781555638
    13   -0.0105310373956086
    14   -0.0000000000092097
    15   -0.0000000000107115
    16   -0.3876211583105705
    17   -0.0323546780213456
    18    0.0325879623957252
    19    0.0076728588553688
    20   -0.0150128619790815
    21    0.7752237747467198
    22    0.0649147350240474
    23    0.0044349812836858
    24    0.0092671710256102
    25    0.0000000000065211
    26   -0.3876211581022915
    27   -0.0323546780042661
    28    0.0325879623994883
    29    0.0076728588587542
    30    0.0150128619840284
Sym= a    
Ene=   0.28107784447750E+00
Spin= Alpha
Occup=       0.00000000000000
     1    0.0000000000000003
     2   -0.0000000000000026
     3    0.0000000000000170
     4    0.0000000000468151
     5    0.0000000000165525
     6   -0.3201528059333463
     7   -0.0000000001996067
     8   -0.0000000000705677
     9    1.3658173693096884
    10   -0.0000000000132579
    11    0.0000000000026484
    12    0.0000000000106116
    13    0.0000000000016167
    14   -0.0592566134634998
    15   -0.0691258640890904
    16   -0.6713841990279003
    17   -0.0560708318395720
    18   -0.0120591744364863
    19   -0.0109295254694650
    20    0.0159493472263533
    21   -0.0000000001202450
    22   -0.0000000000098946
    23   -0.0000000000006850
    24   -0.0000000000014289
    25    0.0419461430237471
    26    0.6713841991481424
    27    0.0560708318494524
    28    0.0120591744263598
    29    0.0109295254670717
    30    0.0159493472216803
Sym= a    
Ene=   0.35078916451792E+00
Spin= Alpha
Occup=       0.00000000000000
     1    0.1459356717042083
     2   -1.0744853281687270
     3    2.5354422080807959
     4   -0.2603933377540104
     5    0.7365480029111485
     6    0.0000000000000049
     7    0.1671071647779503
     8   -0.4727228773677533
     9   -0.0000000000000015
    10   -0.0888137519352267
    11   -0.0785228424793339
    12   -0.0902760181659751
    13   -0.0047976317000635
    14    0.0000000000000010
    15    0.0000000000000001
    16    0.0118420540881959
    17   -0.6080450170704854
    18   -0.0248459796314130
    19    0.0238823622209257
    20   -0.0267839238470814
    21    0.0118384939139747
    22   -0.6080791829233592
    23    0.0189023066671318
    24    0.0393515641033617
    25   -0.0000000000000036
    26    0.0118420540881944
    27   -0.6080450170704766
    28   -0.0248459796314086
    29    0.0238823622209279
    30    0.0267839238470857
Sym= a    
Ene=   0.46299689378599E+00
Spin= Alpha
Occup=       0.00000000000000
     1    0.0695179513514494
     2   -1.0819842095760959
     3    4.3553813281153806
     4    0.1587457944952459
     5   -0.4489962993967851
     6    0.0000000000000092
     7   -0.4400927029229844
     8    1.2445802619427122
     9   -0.0000000000000178
    10   -0.1081146588897347
    11    0.0103656662178246
    12   -0.1250415305249628
    13   -0.0552739981583638
    14   -0.0000000000000013
    15   -0.0000000000000011
    16   -0.5080194232527351
    17   -1.0493269528407649
    18   -0.0201739774656696
    19    0.0250248319753002
    20   -0.0185012325538038
    21   -0.5079803235853897
    22   -1.0495462887123470
    23    0.0100449185063552
    24    0.0356984395059102
    25   -0.0000000000000035
    26   -0.5080194232527192
    27   -1.0493269528408002
    28   -0.0201739774656599
    29    0.0250248319753055
    30    0.0185012325538074
Sym= a    
Ene=   0.58141350114041E+00
Spin= Alpha
Occup=       0.00000000000000
     1    0.1922618685872605
     2   -1.0454486816851853
     3    2.4859610942956611
     4    0.1500472935042016
     5   -0.4431348044072402
     6   -0.0000000000005335
     7   -0.1772537233012778
     8    0.5353168660047509
     9    0.0000000000009344
    10   -0.0015852550284144
    11   -0.1514266103449751
    12    0.0221703563855280
    13    0.0708381704490516
    14    0.0000000000000630
    15    0.0000000000000874
    16    0.5986928261505128
    17   -1.0383414577348153
    18    0.0723677237255440
    19    0.0055045008592365
    20    0.1224317726545721
    21    0.5925606081709678
    22   -1.0188909860107997
    23   -0.1247313186178026
    24   -0.0650771856044695
    25   -0.0000000000000589
    26    0.5986928261499450
    27   -1.0383414577329588
    28    0.0723677237254582
    29    0.0055045008591172
    30   -0.1224317726544430
Sym= a    
Ene=   0.58381038326754E+00
Spin= Alpha
Occup=       0.00000000000000
     1   -0.0000000000000459
     2    0.0000000000002054
     3   -0.0000000000004189
     4    0.0000000000463165
     5    0.0000000000164680
     6   -0.8830111982906942
     7   -0.0000000000839878
     8   -0.0000000000297935
     9    1.5979432853056750
    10    0.0000000000096936
    11   -0.0000000000023253
    12   -0.0000000000073462
    13   -0.0000000000018808
    14    0.1090495663384341
    15    0.1486288978845469
    16    0.5027486282085294
    17   -1.5899309117708276
    18    0.0819750830518076
    19    0.1028168644008531
    20    0.1042659400403084
    21    0.0000000000323775
    22   -0.0000000001022294
    23   -0.0000000000103440
    24    0.0000000000011259
    25   -0.0889670181074588
    26   -0.5027486282412494
    27    1.5899309118736131
    28   -0.0819750830477901
    29   -0.1028168644042023
    30    0.1042659400527752
Sym= a    
Ene=   0.58383020099561E+00
Spin= Alpha
Occup=       0.00000000000000
     1   -0.0013589612454491
     2    0.0073647946614216
     3   -0.0175595167167233
     4   -0.8335827188228849
     5   -0.2912173371766112
     6   -0.0000000000491559
     7    1.5078341351987021
     8    0.5288715301559035
     9    0.0000000000891274
    10   -0.1737911299044832
    11    0.0429101051402371
    12    0.1317952078715028
    13    0.0323406636668939
    14    0.0000000000060495
    15    0.0000000000083142
    16    0.2860401853781906
    17   -0.9106565961678967
    18   -0.0370613103369223
    19    0.0296734259641117
    20    0.1106945001200924
    21   -0.5847319942040722
    22    1.8431773741946478
    23    0.1867313847635987
    24   -0.0191074509894556
    25   -0.0000000000049328
    26    0.2860401853219217
    27   -0.9106565959904929
    28   -0.0370613103460259
    29    0.0296734259526201
    30   -0.1106945001084565
Sym= a    
Ene=   0.10434755003600E+01
Spin= Alpha
Occup=       0.00000000000000
     1    0.0000000000000002
     2    0.0000000000000006
     3   -0.0000000000000040
     4    0.0000000000054126
     5    0.0000000000019086
     6    0.0563922187297951
     7    0.0000000000186338
     8    0.0000000000065870
     9    0.1836470518388629
    10    0.0000000000015455
    11   -0.0000000000233749
    12    0.0000000000218308
    13   -0.0000000000378596
    14    0.3406334178550281
    15   -0.2597706053263161
    16   -0.0949884531336752
    17   -0.0341122309820014
    18    0.3298163438298432
    19   -0.2829591565534071
    20    0.0074432142045505
    21    0.0000000000119434
    22    0.0000000000043223
    23   -0.0000000000021261
    24    0.0000000000488035
    25   -0.3677831656420803
    26    0.0949884531217368
    27    0.0341122309776803
    28   -0.3298163438634329
    29    0.2829591564919831
    30    0.0074432141579759
Sym= a    
Ene=   0.10434806889835E+01
Spin= Alpha
Occup=       0.00000000000000
     1   -0.0000015739177740
     2    0.0000101676644512
     3   -0.0000233731939355
     4   -0.0531566470493034
     5   -0.0187681106406446
     6    0.0000000000057392
     7   -0.1731601839960875
     8   -0.0612307058255626
     9    0.0000000000197561
    10   -0.0145321537876835
    11    0.2176822837260942
    12   -0.2031486602871908
    13    0.3525200152113545
    14    0.0000000000365952
    15   -0.0000000000278855
    16    0.0548389431985626
    17    0.0197133671419877
    18    0.1563345996490251
    19    0.2859536690168175
    20   -0.2166401858768992
    21   -0.1096838781429843
    22   -0.0394025867052324
    23    0.0200443793380658
    24   -0.4542835811759016
    25   -0.0000000000395158
    26    0.0548389432192431
    27    0.0197133671494614
    28    0.1563345995781463
    29    0.2859536690775931
    30    0.2166401858785378
Sym= a    
Ene=   0.14493651490327E+01
Spin= Alpha
Occup=       0.00000000000000
     1    0.0028860065560467
     2   -0.4227790975977477
     3    1.6192049878084791
     4   -0.0222269213499329
     5    0.0628294041550852
     6    0.0000000000000020
     7   -0.2191847273464708
     8    0.6200108729871880
     9    0.0000000000000077
    10    0.0895498335980388
    11   -0.5067136249098597
    12    0.1747680542854276
    13    0.2781956388260263
    14    0.0000000000000042
    15   -0.0000000000000017
    16   -0.3202069780345572
    17   -0.3364372324047337
    18    0.1359357496011282
    19   -0.4299987167206099
    20   -0.0262282105350657
    21   -0.3201756239213596
    22   -0.3364921619055995
    23    0.1787605654663831
    24   -0.4148648419237432
    25    0.0000000000000239
    26   -0.3202069780345523
    27   -0.3364372324047238
    28    0.1359357496010823
    29   -0.4299987167206321
    30    0.0262282105350360
Sym= a    
Ene=   0.14731173180218E+01
Spin= Alpha
Occup=       0.00000000000000
     1    0.0000000000000035
     2   -0.0000000000000042
     3   -0.0000000000000116
     4    0.0000000000000011
     5   -0.0000000000000072
     6   -0.0000166799804231
     7    0.0000000000000152
     8   -0.0000000000000164
     9    0.0000749141318789
    10   -0.0000000000000036
    11    0.0000000000000182
    12   -0.0000000000000051
    13   -0.0000000000000078
    14    0.0000126718591637
    15    0.0000056354365741
    16   -0.0000230605421671
    17   -0.0000279346238068
    18    0.4884106037911226
    19    0.1727052625554903
    20   -0.2991150935604222
    21    0.0000000000000187
    22    0.0000000000000014
    23   -0.0000000000000165
    24    0.0000000000000137
    25    0.5981254714736536
    26    0.0000230605421919
    27    0.0000279346238053
    28   -0.4884106037911481
    29   -0.1727052625554415
    30   -0.2991150935604284
Sym= a    
Ene=   0.16071741624350E+01
Spin= Alpha
Occup=       0.00000000000000
     1    0.0000000000000001
     2   -0.0000000000000007
     3   -0.0000000000000046
     4    0.0000000000000662
     5    0.0000000000000219
     6   -0.0077726676281776
     7   -0.0000000000193047
     8   -0.0000000000068273
     9    0.7733995399251026
    10    0.0000000000037032
    11    0.0000000000006871
    12   -0.0000000000043896
    13    0.0000000000018715
    14    0.1854924346941553
    15    0.0515566170008363
    16   -0.3160945917228939
    17   -0.1770996314524314
    18   -0.0740170251087529
    19    0.4022704041653892
    20   -0.4585707979599851
    21   -0.0000000000095648
    22   -0.0000000000053906
    23    0.0000000000064043
    24    0.0000000000153504
    25   -0.5700830913715726
    26    0.3160945917324635
    27    0.1770996314578252
    28    0.0740170251394501
    29   -0.4022704041676187
    30   -0.4585707979565798
Sym= a    
Ene=   0.16071970284757E+01
Spin= Alpha
Occup=       0.00000000000000
     1    0.0000045819847963
     2    0.0000172304088639
     3   -0.0001688869832639
     4   -0.0073043720455040
     5   -0.0025801196096632
     6   -0.0000000000000720
     7    0.7292222496873627
     8    0.2577372029733191
     9    0.0000000000204766
    10   -0.1406398767210750
    11   -0.0256781471130674
    12    0.1663205100915675
    13   -0.0706615371593651
    14    0.0000000000048933
    15    0.0000000000013488
    16   -0.1824667490837320
    17   -0.1022304513015358
    18   -0.5801832531484464
    19    0.0422923621639228
    20    0.0643505460238632
    21    0.3650168963570680
    22    0.2045942873279668
    23   -0.2418525798740951
    24   -0.5802106737520266
    25   -0.0000000000150910
    26   -0.1824667490671673
    27   -0.1022304512921942
    28   -0.5801832531445175
    29    0.0422923621426494
    30   -0.0643505460481289
Sym= a    
Ene=   0.19047654689142E+01
Spin= Alpha
Occup=       0.00000000000000
     1   -0.0000000000000005
     2    0.0000000000000021
     3    0.0000000000000053
     4    0.0000000000081469
     5    0.0000000000028812
     6   -0.5030797912032723
     7    0.0000000000000691
     8    0.0000000000000248
     9   -0.0039896637956909
    10    0.0000000000091381
    11   -0.0000000000044625
    12   -0.0000000000046764
    13   -0.0000000000054070
    14    0.1198192619292627
    15    0.6055540560999537
    16   -0.1205688177137181
    17    0.2911154077867079
    18   -0.1139202691301294
    19   -0.5114121987292177
    20   -0.2853107813309925
    21   -0.0000000000023836
    22    0.0000000000057831
    23    0.0000000000101650
    24   -0.0000000000057647
    25    0.1959963585995892
    26    0.1205688177160934
    27   -0.2911154077924943
    28    0.1139202691260136
    29    0.5114121987371280
    30   -0.2853107813405594
Sym= a    
Ene=   0.19048031820153E+01
Spin= Alpha
Occup=       0.00000000000000
     1   -0.0000095101346208
     2   -0.0000235961181113
     3    0.0001543348837886
     4    0.4743017779626874
     5    0.1677041435354898
     6    0.0000000000086387
     7    0.0036831778331379
     8    0.0013521320305054
     9    0.0000000000000794
    10    0.5314124454162260
    11   -0.2587658458207062
    12   -0.2726515297125020
    13   -0.3140407394717030
    14   -0.0000000000020525
    15   -0.0000000000104180
    16    0.0695948989057384
    17   -0.1681034507412760
    18   -0.1189662934378635
    19    0.2299237459078650
    20    0.2778869316664855
    21   -0.1392776604128609
    22    0.3360922170531191
    23    0.5912091238611442
    24   -0.3349936123766267
    25   -0.0000000000033848
    26    0.0695948989016114
    27   -0.1681034507312471
    28   -0.1189662934417890
    29    0.2299237458902632
    30   -0.2778869316566849
Sym= a    
Ene=   0.21142861173375E+01
Spin= Alpha
Occup=       0.00000000000000
     1    0.0170269993452008
     2   -0.1989485813055762
     3   -0.5526478529160597
     4    0.1218814924220657
     5   -0.3448149055071306
     6    0.0000000000000043
     7    0.1385972206414400
     8   -0.3922337506360883
     9    0.0000000000000011
    10    0.1691680905664269
    11   -0.6916372116224943
    12    0.2921192621037908
    13    0.4015476344445200
    14   -0.0000000000000050
    15   -0.0000000000000006
    16    0.1229419164190455
    17    0.2194718106823225
    18   -0.3456380710095715
    19    0.3363398018596725
    20   -0.3703583547006675
    21    0.1229089099016974
    22    0.2194247705860785
    23    0.2590509642002353
    24    0.5501433859985283
    25   -0.0000000000000061
    26    0.1229419164190452
    27    0.2194718106823269
    28   -0.3456380710095734
    29    0.3363398018596691
    30    0.3703583547006745
Sym= a    
Ene=   0.23955113233048E+01
Spin= Alpha
Occup=       0.00000000000000
     1   -0.0000026623186413
     2    0.0000000781295991
     3   -0.0000426552165202
     4    0.2257232219024954
     5    0.0797706425051968
     6    0.0000000000156435
     7    0.4267398676514031
     8    0.1508351697141905
     9    0.0000000000297420
    10    0.1117665552577943
    11    0.4916257276434988
    12   -0.6033969847145121
    13    0.8258036453589537
    14   -0.0000000000602710
    15    0.0000000000330996
    16   -0.0754934882041990
    17   -0.1514073051899537
    18   -0.3640902429625298
    19   -0.2909133251853469
    20    0.4208779410792070
    21    0.1510002179208519
    22    0.3028562714417179
    23    0.1702884240644176
    24    0.3847236786265468
    25   -0.0000000000449219
    26   -0.0754934881868584
    27   -0.1514073051554434
    28   -0.3640902430263219
    29   -0.2909133251709755
    30   -0.4208779410731645
Sym= a    
Ene=   0.23955335635236E+01
Spin= Alpha
Occup=       0.00000000000000
     1   -0.0000000000000007
     2    0.0000000000000048
     3   -0.0000000000000052
     4    0.0000000000147458
     5    0.0000000000052112
     6   -0.2394714917298591
     7    0.0000000000280372
     8    0.0000000000099076
     9   -0.4526634218218515
    10    0.0000000000073383
    11    0.0000000000323170
    12   -0.0000000000396550
    13    0.0000000000542914
    14    0.9169639940421339
    15   -0.5033019677568263
    16    0.1308000810759829
    17    0.2622873275069322
    18   -0.4851271658049987
    19    0.1094510645603405
    20   -0.0457920138807708
    21    0.0000000000100067
    22    0.0000000000199219
    23    0.0000000000112078
    24    0.0000000000252890
    25    0.6832891835187977
    26   -0.1308000810859929
    27   -0.2622873275268499
    28    0.4851271657571232
    29   -0.1094510645985712
    30   -0.0457920139361235
Sym= a    
Ene=   0.26955118679709E+01
Spin= Alpha
Occup=       0.00000000000000
     1   -0.1764453083677908
     2    1.3806836441550909
     3    1.0248614333109036
     4   -0.2128785978537137
     5    0.6026454157496342
     6   -0.0000000000000122
     7   -0.0786978294368461
     8    0.2230401056483952
     9   -0.0000000000000016
    10    0.4452375821288145
    11   -0.4687574357834671
    12    0.5763928666034831
    13    0.4266217895016964
    14   -0.0000000000000137
    15   -0.0000000000000124
    16   -0.8039876146434115
    17   -0.3243339130081281
    18    0.2770853760378046
    19    0.5077377289473606
    20    0.7455599693528966
    21   -0.8037049281842553
    22   -0.3241892321165943
    23   -0.9401111214860323
    24    0.0773053777825735
    25   -0.0000000000000073
    26   -0.8039876146434350
    27   -0.3243339130081266
    28    0.2770853760378117
    29    0.5077377289473692
    30   -0.7455599693529138
Sym= a    
Ene=   0.29090727406688E+01
Spin= Alpha
Occup=       0.00000000000000
     1   -0.0000000000000018
     2    0.0000000000000207
     3    0.0000000000000094
     4   -0.0000000000156498
     5   -0.0000000000055210
     6    1.2272121125385846
     7   -0.0000000000079785
     8   -0.0000000000028177
     9    0.6266886386526807
    10    0.0000000000174432
    11   -0.0000000000040550
    12   -0.0000000000133713
    13   -0.0000000000030511
    14    0.8297217542968408
    15    1.0923597160327032
    16   -1.0463094624790326
    17   -0.3794709631369325
    18    0.3269126086327528
    19    0.4912056717429991
    20    0.8808858112106281
    21   -0.0000000000162889
    22   -0.0000000000059099
    23   -0.0000000000165255
    24    0.0000000000000100
    25    0.0634553753758698
    26    1.0463094624952805
    27    0.3794709631428336
    28   -0.3269126086394551
    29   -0.4912056717512011
    30    0.8808858112233395
Sym= a    
Ene=   0.29091371579690E+01
Spin= Alpha
Occup=       0.00000000000000
     1   -0.0000432464558691
     2    0.0005053671086509
     3    0.0002238421080064
     4   -1.1572541652477588
     5   -0.4088982777849041
     6   -0.0000000000165922
     7   -0.5908894875364756
     8   -0.2088298220312777
     9   -0.0000000000084640
    10    1.2926878067203611
    11   -0.2998637605556466
    12   -0.9926345506914708
    13   -0.2256136825169054
    14   -0.0000000000111806
    15   -0.0000000000147411
    16    0.6038821245031721
    17    0.2190236815035086
    18   -0.2484723739813528
    19   -0.3046222454673326
    20   -0.4717823344325633
    21   -1.2086053919620405
    22   -0.4382536049257760
    23   -1.2240432124535596
    24    0.0011243905724909
    25   -0.0000000000008578
    26    0.6038821244749861
    27    0.2190236814932730
    28   -0.2484723739725293
    29   -0.3046222454540853
    30    0.4717823344087936
Sym= a    
Ene=   0.52485734573272E+01
Spin= Alpha
Occup=       0.00000000000000
     1   -0.9623665903488878
     2    4.0721637733847977
     3   -0.2304541917477929
     4    0.0714667009303273
     5   -0.2020374843824025
     6    0.0000000000000013
     7    0.0164514734915496
     8   -0.0465343977328066
     9    0.0000000000000002
    10   -2.0479823007361198
    11   -1.8293887745215154
    12   -2.0791788607248813
    13   -0.1019679981766179
    14    0.0000000000000009
    15    0.0000000000000011
    16    0.3012483180359933
    17   -0.0139356896264372
    18   -0.0964241008998606
    19   -0.1404060562424383
    20   -0.2385211791662284
    21    0.3013160258539401