 Entering Gaussian System, Link 0=g16
 Input=calc.com
 Output=calc.log
 Initial command:
 /binaries/g16/l1.exe "/calcus/scratch/scr/29/Gau-166.inp" -scrdir="/calcus/scratch/scr/29/"
 Entering Link 1 = /binaries/g16/l1.exe PID=       168.
  
 Copyright (c) 1988-2019, Gaussian, Inc.  All Rights Reserved.
  
 This is part of the Gaussian(R) 16 program.  It is based on
 the Gaussian(R) 09 system (copyright 2009, Gaussian, Inc.),
 the Gaussian(R) 03 system (copyright 2003, Gaussian, Inc.),
 the Gaussian(R) 98 system (copyright 1998, Gaussian, Inc.),
 the Gaussian(R) 94 system (copyright 1995, Gaussian, Inc.),
 the Gaussian 92(TM) system (copyright 1992, Gaussian, Inc.),
 the Gaussian 90(TM) system (copyright 1990, Gaussian, Inc.),
 the Gaussian 88(TM) system (copyright 1988, Gaussian, Inc.),
 the Gaussian 86(TM) system (copyright 1986, Carnegie Mellon
 University), and the Gaussian 82(TM) system (copyright 1983,
 Carnegie Mellon University). Gaussian is a federally registered
 trademark of Gaussian, Inc.
  
 This software contains proprietary and confidential information,
 including trade secrets, belonging to Gaussian, Inc.
  
 This software is provided under written license and may be
 used, copied, transmitted, or stored only in accord with that
 written license.
  
 The following legend is applicable only to US Government
 contracts under FAR:
  
                    RESTRICTED RIGHTS LEGEND
  
 Use, reproduction and disclosure by the US Government is
 subject to restrictions as set forth in subparagraphs (a)
 and (c) of the Commercial Computer Software - Restricted
 Rights clause in FAR 52.227-19.
  
 Gaussian, Inc.
 340 Quinnipiac St., Bldg. 40, Wallingford CT 06492
  
  
 ---------------------------------------------------------------
 Warning -- This program may not be used in any manner that
 competes with the business of Gaussian, Inc. or will provide
 assistance to any competitor of Gaussian, Inc.  The licensee
 of this program is prohibited from giving any competitor of
 Gaussian, Inc. access to this program.  By using this program,
 the user acknowledges that Gaussian, Inc. is engaged in the
 business of creating and licensing software in the field of
 computational chemistry and represents and warrants to the
 licensee that it is not a competitor of Gaussian, Inc. and that
 it will not use this program in any manner prohibited above.
 ---------------------------------------------------------------
  

 Cite this work as:
 Gaussian 16, Revision C.01,
 M. J. Frisch, G. W. Trucks, H. B. Schlegel, G. E. Scuseria, 
 M. A. Robb, J. R. Cheeseman, G. Scalmani, V. Barone, 
 G. A. Petersson, H. Nakatsuji, X. Li, M. Caricato, A. V. Marenich, 
 J. Bloino, B. G. Janesko, R. Gomperts, B. Mennucci, H. P. Hratchian, 
 J. V. Ortiz, A. F. Izmaylov, J. L. Sonnenberg, D. Williams-Young, 
 F. Ding, F. Lipparini, F. Egidi, J. Goings, B. Peng, A. Petrone, 
 T. Henderson, D. Ranasinghe, V. G. Zakrzewski, J. Gao, N. Rega, 
 G. Zheng, W. Liang, M. Hada, M. Ehara, K. Toyota, R. Fukuda, 
 J. Hasegawa, M. Ishida, T. Nakajima, Y. Honda, O. Kitao, H. Nakai, 
 T. Vreven, K. Throssell, J. A. Montgomery, Jr., J. E. Peralta, 
 F. Ogliaro, M. J. Bearpark, J. J. Heyd, E. N. Brothers, K. N. Kudin, 
 V. N. Staroverov, T. A. Keith, R. Kobayashi, J. Normand, 
 K. Raghavachari, A. P. Rendell, J. C. Burant, S. S. Iyengar, 
 J. Tomasi, M. Cossi, J. M. Millam, M. Klene, C. Adamo, R. Cammi, 
 J. W. Ochterski, R. L. Martin, K. Morokuma, O. Farkas, 
 J. B. Foresman, and D. J. Fox, Gaussian, Inc., Wallingford CT, 2019.
 
 ******************************************
 Gaussian 16:  ES64L-G16RevC.01  3-Jul-2019
                 5-Sep-2022 
 ******************************************
 %chk=in.chk
 %nproc=1
 Will use up to    1 processors via shared memory.
 %mem=2000MB
 ------------------------
 #p opt(modredundant) AM1
 ------------------------
 1/18=120,19=15,26=1,38=1/1,3;
 2/9=110,12=2,17=6,18=5,40=1/2;
 3/5=2,25=1,41=700000,71=1/1,2,3;
 4/35=1/1;
 5/5=2,35=1,38=5/2;
 6/7=2,8=2,9=2,10=2,28=1/1;
 7//1,2,3,16;
 1/18=20,19=15,26=1/3(2);
 2/9=110/2;
 99//99;
 2/9=110/2;
 3/5=2,25=1,41=700000,71=1,135=20/1,2,3;
 4/5=5,16=3,35=1/1;
 5/5=2,35=1,38=5/2;
 7//1,2,3,16;
 1/18=20,19=15,26=1/3(-5);
 2/9=110/2;
 6/7=2,8=2,9=2,10=2,19=2,28=1/1;
 99/9=1/99;
 Leave Link    1 at Mon Sep  5 10:35:43 2022, MaxMem=   262144000 cpu:               0.0 elap:               0.0
 (Enter /binaries/g16/l101.exe)
 -----------------------
 File created by ccinput
 -----------------------
 Symbolic Z-matrix:
 Charge =  0 Multiplicity = 1
 C                     4.2918    3.6588    0. 
 H                     4.6485    2.65      0. 
 H                     4.6485    4.1632    0.8707 
 H                     4.6485    4.1632   -0.8797 
 H                     3.2218    3.6588    0. 
 
 The following ModRedundant input section has been read:
 A       1       2       3 S1000 0.1200                                        
 
 ITRead=  0  0  0  0  0
 MicOpt= -1 -1 -1 -1 -1
 NAtoms=      5 NQM=        5 NQMF=       0 NMMI=      0 NMMIF=      0
                NMic=       0 NMicF=      0.
                    Isotopes and Nuclear Properties:
 (Nuclear quadrupole moments (NQMom) in fm**2, nuclear magnetic moments (NMagM)
  in nuclear magnetons)

  Atom         1           2           3           4           5
 IAtWgt=          12           1           1           1           1
 AtmWgt=  12.0000000   1.0078250   1.0078250   1.0078250   1.0078250
 NucSpn=           0           1           1           1           1
 AtZEff=  -0.0000000  -0.0000000  -0.0000000  -0.0000000  -0.0000000
 NQMom=    0.0000000   0.0000000   0.0000000   0.0000000   0.0000000
 NMagM=    0.0000000   2.7928460   2.7928460   2.7928460   2.7928460
 AtZNuc=   6.0000000   1.0000000   1.0000000   1.0000000   1.0000000
 Leave Link  101 at Mon Sep  5 10:35:43 2022, MaxMem=   262144000 cpu:               0.1 elap:               0.1
 (Enter /binaries/g16/l103.exe)

 GradGradGradGradGradGradGradGradGradGradGradGradGradGradGradGradGradGrad
 Berny optimization.
 Initialization pass.
                           ----------------------------
                           !    Initial Parameters    !
                           ! (Angstroms and Degrees)  !
 --------------------------                            --------------------------
 ! Name  Definition              Value          Derivative Info.                !
 --------------------------------------------------------------------------------
 ! R1    R(1,2)                  1.07           estimate D2E/DX2                !
 ! R2    R(1,3)                  1.0676         estimate D2E/DX2                !
 ! R3    R(1,4)                  1.075          estimate D2E/DX2                !
 ! R4    R(1,5)                  1.07           estimate D2E/DX2                !
 ! A1    A(2,1,3)              109.5151         estimate D2E/DX2                !
 ! A2    A(2,1,4)              109.3762         estimate D2E/DX2                !
 ! A3    A(2,1,5)              109.473          estimate D2E/DX2                !
 ! A4    A(3,1,4)              109.5644         estimate D2E/DX2                !
 ! A5    A(3,1,5)              109.5186         estimate D2E/DX2                !
 ! A6    A(4,1,5)              109.3798         estimate D2E/DX2                !
 ! A7    A(1,2,3)               35.1969         Scan                            !
 ! D1    D(2,1,4,3)           -120.0525         estimate D2E/DX2                !
 ! D2    D(2,1,5,3)            120.0839         estimate D2E/DX2                !
 ! D3    D(2,1,5,4)           -119.829          estimate D2E/DX2                !
 ! D4    D(3,1,5,4)            120.0871         estimate D2E/DX2                !
 --------------------------------------------------------------------------------
 Trust Radius=3.00D-01 FncErr=1.00D-07 GrdErr=1.00D-07 EigMax=2.50D+02 EigMin=1.00D-04
 Number of optimizations in scan=1001
 Number of steps in this run=     25 maximum allowed number of steps=    100.
 GradGradGradGradGradGradGradGradGradGradGradGradGradGradGradGradGradGrad

 Leave Link  103 at Mon Sep  5 10:35:43 2022, MaxMem=   262144000 cpu:               0.0 elap:               0.0
 (Enter /binaries/g16/l202.exe)
                          Input orientation:                          
 ---------------------------------------------------------------------
 Center     Atomic      Atomic             Coordinates (Angstroms)
 Number     Number       Type             X           Y           Z
 ---------------------------------------------------------------------
      1          6           0        4.291800    3.658800    0.000000
      2          1           0        4.648500    2.650000    0.000000
      3          1           0        4.648500    4.163200    0.870700
      4          1           0        4.648500    4.163200   -0.879700
      5          1           0        3.221800    3.658800    0.000000
 ---------------------------------------------------------------------
                    Distance matrix (angstroms):
                    1          2          3          4          5
     1  C    0.000000
     2  H    1.070006   0.000000
     3  H    1.067601   1.745822   0.000000
     4  H    1.074954   1.750327   1.750400   0.000000
     5  H    1.070000   1.747327   1.745855   1.750361   0.000000
 Stoichiometry    CH4
 Framework group  C1[X(CH4)]
 Deg. of freedom     9
 Full point group                 C1      NOp   1
 Largest Abelian subgroup         C1      NOp   1
 Largest concise Abelian subgroup C1      NOp   1
                         Standard orientation:                         
 ---------------------------------------------------------------------
 Center     Atomic      Atomic             Coordinates (Angstroms)
 Number     Number       Type             X           Y           Z
 ---------------------------------------------------------------------
      1          6           0       -0.000767    0.000001    0.000472
      2          1           0       -0.325680   -0.869163   -0.532348
      3          1           0       -0.412253   -0.010991    0.985525
      4          1           0        1.072605    0.002075    0.058743
      5          1           0       -0.330072    0.878070   -0.514750
 ---------------------------------------------------------------------
 Rotational constants (GHZ):         164.4303219         163.9529333         163.7655362
 Leave Link  202 at Mon Sep  5 10:35:43 2022, MaxMem=   262144000 cpu:               0.0 elap:               0.0
 (Enter /binaries/g16/l301.exe)
 Standard basis: VSTO-6G (5D, 7F)
 Ernie: Thresh=  0.10000D-02 Tol=  0.10000D-05 Strict=F.
  NNHCO=     0 NNPyr=     0 NCTC=     0               EPep=         0.000000000
    EC=         6.919995759  ECS=         0.582582337   EG=         0.068208026
   EHC=         0.000000000  EAt=        -6.115142680  AtH=         0.604449838
 EPDDG=         0.000000000  ECC=         7.570786122 EAtT=         6.719592518
 There are     8 symmetry adapted cartesian basis functions of A   symmetry.
 There are     8 symmetry adapted basis functions of A   symmetry.
     8 basis functions,    48 primitive gaussians,     8 cartesian basis functions
     4 alpha electrons        4 beta electrons
       nuclear repulsion energy        14.2903786404 Hartrees.
 IExCor=    0 DFT=F Ex=HF Corr=None ExCW=0 ScaHFX=  1.000000
 ScaDFX=  1.000000  1.000000  1.000000  1.000000 ScalE2=  1.000000  1.000000
 IRadAn=      5 IRanWt=     -1 IRanGd=            0 ICorTp=0 IEmpDi=  4
 Integral buffers will be    131072 words long.
 Regular integral format.
 Two-electron integral symmetry is turned off.
 Leave Link  301 at Mon Sep  5 10:35:43 2022, MaxMem=   262144000 cpu:               0.0 elap:               0.0
 (Enter /binaries/g16/l302.exe)
 Do NDO integrals.
 NPDir=0 NMtPBC=     1 NCelOv=     1 NCel=       1 NClECP=     1 NCelD=      1
         NCelK=      1 NCelE2=     1 NClLst=     1 CellRange=     0.0.
 One-electron integrals computed using PRISM.
 NBasis=     8 RedAO= F EigKep=  0.00D+00  NBF=     8
 NBsUse=     8 1.00D-04 EigRej=  0.00D+00 NBFU=     8
 Leave Link  302 at Mon Sep  5 10:35:44 2022, MaxMem=   262144000 cpu:               0.0 elap:               0.0
 (Enter /binaries/g16/l303.exe)
 DipDrv:  MaxL=1.
 Leave Link  303 at Mon Sep  5 10:35:44 2022, MaxMem=   262144000 cpu:               0.0 elap:               0.0
 (Enter /binaries/g16/l401.exe)
 Simple Huckel Guess.
 JPrj=0 DoOrth=F DoCkMO=F.
 Leave Link  401 at Mon Sep  5 10:35:44 2022, MaxMem=   262144000 cpu:               0.0 elap:               0.0
 (Enter /binaries/g16/l502.exe)
 Keep J ints in memory in canonical form, NReq=859348.
 FoFCou: FMM=F IPFlag=           0 FMFlag=           0 FMFlg1=           0
         NFxFlg=           0 DoJE=F BraDBF=F KetDBF=F FulRan=T
         wScrn=  0.000000 ICntrl=       600 IOpCl=  2 I1Cent=           0 NGrid=           0
         NMat0=    1 NMatS0=     14 NMatT0=    0 NMatD0=    1 NMtDS0=    0 NMtDT0=    0
 Symmetry not used in FoFCou.
 Two-electron integral symmetry not used.
 Closed shell SCF:
 Using DIIS extrapolation, IDIIS=  1040.
 Overlap will be assumed to be unity.
 NGot=   262144000 LenX=   262083483 LenY=   262082601
 Requested convergence on RMS density matrix=1.00D-08 within 128 cycles.
 Requested convergence on MAX density matrix=1.00D-06.
 Requested convergence on             energy=1.00D-06.
 No special actions if energy rises.

 Cycle   1  Pass 1  IDiag  1:
 E= 0.452729332967827E-01
 DIIS: error= 4.04D-02 at cycle   1 NSaved=   1.
 NSaved= 1 IEnMin= 1 EnMin= 0.452729332967827E-01 IErMin= 1 ErrMin= 4.04D-02
 ErrMax= 4.04D-02  0.00D+00 EMaxC= 1.00D-01 BMatC= 2.62D-02 BMatP= 2.62D-02
 IDIUse=3 WtCom= 5.96D-01 WtEn= 4.04D-01
 Coeff-Com:  0.100D+01
 Coeff-En:   0.100D+01
 Coeff:      0.100D+01
 GapD=    2.000 DampG=2.000 DampE=0.500 DampFc=1.0000 IDamp=-1.
 RMSDP=2.26D-02 MaxDP=1.27D-01              OVMax= 0.00D+00

 Cycle   2  Pass 1  IDiag  1:
 E=-0.609907068839100E-02 Delta-E=       -0.051372003985 Rises=F Damp=F
 DIIS: error= 9.25D-03 at cycle   2 NSaved=   2.
 NSaved= 2 IEnMin= 2 EnMin=-0.609907068839100E-02 IErMin= 2 ErrMin= 9.25D-03
 ErrMax= 9.25D-03  0.00D+00 EMaxC= 1.00D-01 BMatC= 1.39D-03 BMatP= 2.62D-02
 IDIUse=3 WtCom= 9.08D-01 WtEn= 9.25D-02
 Coeff-Com: -0.298D+00 0.130D+01
 Coeff-En:   0.000D+00 0.100D+01
 Coeff:     -0.270D+00 0.127D+01
 RMSDP=6.60D-03 MaxDP=3.57D-02 DE=-5.14D-02 OVMax= 0.00D+00

 Cycle   3  Pass 1  IDiag  3:
 E=-0.894858455685110E-02 Delta-E=       -0.002849513868 Rises=F Damp=F
 DIIS: error= 3.66D-04 at cycle   3 NSaved=   3.
 NSaved= 3 IEnMin= 3 EnMin=-0.894858455685110E-02 IErMin= 3 ErrMin= 3.66D-04
 ErrMax= 3.66D-04  0.00D+00 EMaxC= 1.00D-01 BMatC= 2.83D-06 BMatP= 1.39D-03
 IDIUse=3 WtCom= 9.96D-01 WtEn= 3.66D-03
 Coeff-Com:  0.291D+00-0.131D+01 0.202D+01
 Coeff-En:   0.000D+00 0.000D+00 0.100D+01
 Coeff:      0.290D+00-0.131D+01 0.202D+01
 Gap=     0.672 Goal=   None    Shift=    0.000
 RMSDP=7.89D-04 MaxDP=2.57D-03 DE=-2.85D-03 OVMax= 2.55D-03

 Cycle   4  Pass 1  IDiag  3:
 E=-0.896292349164618E-02 Delta-E=       -0.000014338935 Rises=F Damp=F
 DIIS: error= 1.48D-05 at cycle   4 NSaved=   4.
 NSaved= 4 IEnMin= 4 EnMin=-0.896292349164618E-02 IErMin= 4 ErrMin= 1.48D-05
 ErrMax= 1.48D-05  0.00D+00 EMaxC= 1.00D-01 BMatC= 2.69D-09 BMatP= 2.83D-06
 IDIUse=1 WtCom= 1.00D+00 WtEn= 0.00D+00
 Coeff-Com: -0.362D-02 0.179D-01-0.327D-01 0.102D+01
 Coeff:     -0.362D-02 0.179D-01-0.327D-01 0.102D+01
 Gap=     0.673 Goal=   None    Shift=    0.000
 RMSDP=9.48D-06 MaxDP=5.05D-05 DE=-1.43D-05 OVMax= 5.17D-05

 Cycle   5  Pass 1  IDiag  3:
 E=-0.896292896141659E-02 Delta-E=       -0.000000005470 Rises=F Damp=F
 DIIS: error= 5.64D-07 at cycle   5 NSaved=   5.
 NSaved= 5 IEnMin= 5 EnMin=-0.896292896141659E-02 IErMin= 5 ErrMin= 5.64D-07
 ErrMax= 5.64D-07  0.00D+00 EMaxC= 1.00D-01 BMatC= 7.88D-12 BMatP= 2.69D-09
 IDIUse=1 WtCom= 1.00D+00 WtEn= 0.00D+00
 Coeff-Com:  0.375D-02-0.175D-01 0.288D-01-0.362D+00 0.135D+01
 Coeff:      0.375D-02-0.175D-01 0.288D-01-0.362D+00 0.135D+01
 Gap=     0.673 Goal=   None    Shift=    0.000
 RMSDP=7.38D-07 MaxDP=1.62D-06 DE=-5.47D-09 OVMax= 0.00D+00

 Cycle   6  Pass 1  IDiag  3:
 E=-0.896292898503859E-02 Delta-E=       -0.000000000024 Rises=F Damp=F
 DIIS: error= 1.82D-07 at cycle   6 NSaved=   6.
 NSaved= 6 IEnMin= 6 EnMin=-0.896292898503859E-02 IErMin= 6 ErrMin= 1.82D-07
 ErrMax= 1.82D-07  0.00D+00 EMaxC= 1.00D-01 BMatC= 6.70D-13 BMatP= 7.88D-12
 IDIUse=1 WtCom= 1.00D+00 WtEn= 0.00D+00
 Coeff-Com: -0.756D-03 0.382D-02-0.715D-02 0.231D+00-0.933D+00 0.171D+01
 Coeff:     -0.756D-03 0.382D-02-0.715D-02 0.231D+00-0.933D+00 0.171D+01
 Gap=     0.673 Goal=   None    Shift=    0.000
 RMSDP=2.69D-07 MaxDP=7.65D-07 DE=-2.36D-11 OVMax= 7.82D-07

 Cycle   7  Pass 1  IDiag  3:
 E=-0.896292898716844E-02 Delta-E=       -0.000000000002 Rises=F Damp=F
 DIIS: error= 3.48D-08 at cycle   7 NSaved=   7.
 NSaved= 7 IEnMin= 7 EnMin=-0.896292898716844E-02 IErMin= 7 ErrMin= 3.48D-08
 ErrMax= 3.48D-08  0.00D+00 EMaxC= 1.00D-01 BMatC= 1.69D-14 BMatP= 6.70D-13
 IDIUse=1 WtCom= 1.00D+00 WtEn= 0.00D+00
 Coeff-Com:  0.251D-03-0.131D-02 0.260D-02-0.101D+00 0.409D+00-0.756D+00
 Coeff-Com:  0.145D+01
 Coeff:      0.251D-03-0.131D-02 0.260D-02-0.101D+00 0.409D+00-0.756D+00
 Coeff:      0.145D+01
 Gap=     0.673 Goal=   None    Shift=    0.000
 RMSDP=3.18D-08 MaxDP=1.65D-07 DE=-2.13D-12 OVMax= 1.68D-07

 Cycle   8  Pass 1  IDiag  3:
 E=-0.896292898719508E-02 Delta-E=       -0.000000000000 Rises=F Damp=F
 DIIS: error= 1.05D-08 at cycle   8 NSaved=   8.
 NSaved= 8 IEnMin= 8 EnMin=-0.896292898719508E-02 IErMin= 8 ErrMin= 1.05D-08
 ErrMax= 1.05D-08  0.00D+00 EMaxC= 1.00D-01 BMatC= 1.73D-15 BMatP= 1.69D-14
 IDIUse=1 WtCom= 1.00D+00 WtEn= 0.00D+00
 Coeff-Com: -0.584D-05 0.590D-04-0.193D-03 0.170D-01-0.688D-01 0.127D+00
 Coeff-Com: -0.359D+00 0.128D+01
 Coeff:     -0.584D-05 0.590D-04-0.193D-03 0.170D-01-0.688D-01 0.127D+00
 Coeff:     -0.359D+00 0.128D+01
 Gap=     0.673 Goal=   None    Shift=    0.000
 RMSDP=7.69D-09 MaxDP=4.10D-08 DE=-2.66D-14 OVMax= 4.19D-08

 Cycle   9  Pass 2  IDiag  1:
 SCF Done:  E(RAM1) = -0.896292898720E-02 A.U. after    9 cycles
            NFock=  8  Conv=0.77D-08     -V/T= 0.9991
 KE=-9.923828799827D+00 PE=-1.351118057988D+01 EE= 9.135667810355D+00
 Leave Link  502 at Mon Sep  5 10:35:44 2022, MaxMem=   262144000 cpu:               0.0 elap:               0.0
 (Enter /binaries/g16/l601.exe)
 Copying SCF densities to generalized density rwf, IOpCl= 0 IROHF=0.

 **********************************************************************

            Population analysis using the SCF Density.

 **********************************************************************

 Orbital symmetries:
       Occupied  (A) (A) (A) (A)
       Virtual   (A) (A) (A) (A)
 The electronic state is 1-A.
 Alpha  occ. eigenvalues --   -1.09135  -0.49733  -0.49693  -0.49623
 Alpha virt. eigenvalues --    0.17640   0.17713   0.17752   0.20334
          Condensed to atoms (all electrons):
               1          2          3          4          5
     1  C    4.258397   0.000000   0.000000   0.000000   0.000000
     2  H    0.000000   0.935473   0.000000   0.000000   0.000000
     3  H    0.000000   0.000000   0.935243   0.000000   0.000000
     4  H    0.000000   0.000000   0.000000   0.935423   0.000000
     5  H    0.000000   0.000000   0.000000   0.000000   0.935464
 Mulliken charges:
               1
     1  C   -0.258397
     2  H    0.064527
     3  H    0.064757
     4  H    0.064577
     5  H    0.064536
 Sum of Mulliken charges =  -0.00000
 Mulliken charges with hydrogens summed into heavy atoms:
               1
     1  C   -0.000000
 Charge=             -0.0000 electrons
 Dipole moment (field-independent basis, Debye):
    X=              0.0008    Y=             -0.0000    Z=             -0.0007  Tot=              0.0011
 N-N= 1.429037864037D+01 E-N=-1.351118053997D+01  KE=-9.923828799827D+00
 Leave Link  601 at Mon Sep  5 10:35:44 2022, MaxMem=   262144000 cpu:               0.0 elap:               0.0
 (Enter /binaries/g16/l701.exe)
 ... and contract with generalized density number  0.
 Compute integral first derivatives.
 Leave Link  701 at Mon Sep  5 10:35:44 2022, MaxMem=   262144000 cpu:               0.0 elap:               0.0
 (Enter /binaries/g16/l702.exe)
 L702 exits ... SP integral derivatives will be done elsewhere.
 Leave Link  702 at Mon Sep  5 10:35:44 2022, MaxMem=   262144000 cpu:               0.0 elap:               0.0
 (Enter /binaries/g16/l703.exe)
 Integral derivatives from FoFJK, PRISM(SPDF).
 Compute integral first derivatives, UseDBF=F ICtDFT=           0.
 Calling FoFJK, ICntrl=      2127 FMM=F ISym2X=0 I1Cent= 0 IOpClX= 0 NMat=1 NMatS=1 NMatT=0.
 FoFJK:  IHMeth= 8 ICntrl=    2127 DoSepK=F KAlg= 0 I1Cent=           0 FoldK=F
 IRaf=         0 NMat=       1 IRICut=       1 DoRegI=T DoRafI=F ISym2E= 0 IDoP0=3 IntGTp=3.
 FoFCou: FMM=F IPFlag=           0 FMFlag=      100000 FMFlg1=         800
         NFxFlg=           0 DoJE=F BraDBF=F KetDBF=F FulRan=T
         wScrn=  0.000000 ICntrl=      2127 IOpCl=  0 I1Cent=           0 NGrid=           0
         NMat0=    1 NMatS0=      1 NMatT0=    0 NMatD0=    1 NMtDS0=    0 NMtDT0=    0
 Symmetry not used in FoFCou.
 Leave Link  703 at Mon Sep  5 10:35:44 2022, MaxMem=   262144000 cpu:               0.0 elap:               0.0
 (Enter /binaries/g16/l716.exe)
 Dipole        = 3.24043308D-04-2.85092585D-06-2.93570403D-04
 ***** Axes restored to original set *****
 -------------------------------------------------------------------
 Center     Atomic                   Forces (Hartrees/Bohr)
 Number     Number              X              Y              Z
 -------------------------------------------------------------------
      1        6           0.000515854    0.000715891   -0.004261023
      2        1           0.011382394   -0.032128215   -0.000037722
      3        1           0.012049670    0.017045580    0.029095296
      4        1           0.010137481    0.014341509   -0.024758843
      5        1          -0.034085398    0.000025235   -0.000037709
 -------------------------------------------------------------------
 Cartesian Forces:  Max     0.034085398 RMS     0.017409316
 Leave Link  716 at Mon Sep  5 10:35:44 2022, MaxMem=   262144000 cpu:               0.0 elap:               0.0
 (Enter /binaries/g16/l103.exe)

 GradGradGradGradGradGradGradGradGradGradGradGradGradGradGradGradGradGrad
 Berny optimization.
 FormGI is forming the generalized inverse of G from B-inverse, IUseBI=4.
 Internal  Forces:  Max     0.035762377 RMS     0.017372856
 Search for a local minimum.
 Step number   1 out of a maximum of   25 on scan point     1 out of  1001
 All quantities printed in internal units (Hartrees-Bohrs-Radians)
 RMS Force = .17981D-01 SwitMx=.10000D-02 MixMth= 1
 Mixed Optimization -- RFO/linear search
 Second derivative matrix not updated -- first step.
 The second derivative matrix:
                          R1        R2        R3        R4        A1
           R1           0.37229
           R2           0.00000   0.37535
           R3           0.00000   0.00000   0.36611
           R4           0.00000   0.00000   0.00000   0.37230
           A1           0.00000   0.00000   0.00000   0.00000   0.16000
           A2           0.00000   0.00000   0.00000   0.00000   0.00000
           A3           0.00000   0.00000   0.00000   0.00000   0.00000
           A4           0.00000   0.00000   0.00000   0.00000   0.00000
           A5           0.00000   0.00000   0.00000   0.00000   0.00000
           A6           0.00000   0.00000   0.00000   0.00000   0.00000
           A7           0.00000   0.00000   0.00000   0.00000   0.00000
           D1           0.00000   0.00000   0.00000   0.00000   0.00000
           D2           0.00000   0.00000   0.00000   0.00000   0.00000
           D3           0.00000   0.00000   0.00000   0.00000   0.00000
           D4           0.00000   0.00000   0.00000   0.00000   0.00000
                          A2        A3        A4        A5        A6
           A2           0.16000
           A3           0.00000   0.16000
           A4           0.00000   0.00000   0.16000
           A5           0.00000   0.00000   0.00000   0.16000
           A6           0.00000   0.00000   0.00000   0.00000   0.16000
           A7           0.00000   0.00000   0.00000   0.00000   0.00000
           D1           0.00000   0.00000   0.00000   0.00000   0.00000
           D2           0.00000   0.00000   0.00000   0.00000   0.00000
           D3           0.00000   0.00000   0.00000   0.00000   0.00000
           D4           0.00000   0.00000   0.00000   0.00000   0.00000
                          A7        D1        D2        D3        D4
           A7           0.16000
           D1           0.00000   0.00434
           D2           0.00000   0.00000   0.00499
           D3           0.00000   0.00000   0.00000   0.00499
           D4           0.00000   0.00000   0.00000   0.00000   0.00499
 ITU=  0
     Eigenvalues ---    0.05901   0.08391   0.12942   0.16000   0.25188
     Eigenvalues ---    0.36611   0.37230   0.373831000.000001000.00000
     Eigenvalues --- 1000.000001000.000001000.000001000.000001000.00000
 RFO step:  Lambda=-1.18001134D-02 EMin= 5.90084353D-02
 Linear search not attempted -- first point.
 Iteration  1 RMS(Cart)=  0.04527869 RMS(Int)=  0.00003771
 Iteration  2 RMS(Cart)=  0.00002442 RMS(Int)=  0.00000669
 Iteration  3 RMS(Cart)=  0.00000000 RMS(Int)=  0.00000669
 Iteration  1 RMS(Cart)=  0.00000170 RMS(Int)=  0.00000590
 Iteration  2 RMS(Cart)=  0.00000150 RMS(Int)=  0.00000620
 Iteration  3 RMS(Cart)=  0.00000132 RMS(Int)=  0.00000690
 Iteration  4 RMS(Cart)=  0.00000116 RMS(Int)=  0.00000778
 Iteration  5 RMS(Cart)=  0.00000102 RMS(Int)=  0.00000868
 Iteration  6 RMS(Cart)=  0.00000090 RMS(Int)=  0.00000956
 ITry= 1 IFail=0 DXMaxC= 8.86D-02 DCOld= 1.00D+10 DXMaxT= 3.00D-01 DXLimC= 3.00D+00 Rises=F
 Variable       Old X    -DE/DX   Delta X   Delta X   Delta X     New X
                                 (Linear)    (Quad)   (Total)
    R1        2.02202   0.03413   0.00000   0.08892   0.08890   2.11092
    R2        2.01747   0.03576   0.00000   0.09231   0.09233   2.10981
    R3        2.03137   0.03036   0.00000   0.08032   0.08032   2.11169
    R4        2.02201   0.03409   0.00000   0.08874   0.08874   2.11075
    A1        1.91140   0.00007   0.00000   0.00126   0.00124   1.91264
    A2        1.90898  -0.00001   0.00000  -0.00015  -0.00014   1.90883
    A3        1.91066  -0.00001   0.00000   0.00027   0.00027   1.91094
    A4        1.91226  -0.00015   0.00000  -0.00165  -0.00165   1.91061
    A5        1.91146   0.00006   0.00000   0.00033   0.00034   1.91180
    A6        1.90904   0.00005   0.00000  -0.00006  -0.00007   1.90897
    A7        0.61430   0.00026   0.00000   0.00000  -0.00001   0.61429
    D1       -2.09531   0.00002   0.00000  -0.00044  -0.00043  -2.09574
    D2        2.09586   0.00012   0.00000   0.00191   0.00190   2.09776
    D3       -2.09141  -0.00000   0.00000   0.00005   0.00005  -2.09136
    D4        2.09592  -0.00012   0.00000  -0.00186  -0.00185   2.09406
         Item               Value     Threshold  Converged?
 Maximum Force            0.035432     0.000450     NO 
 RMS     Force            0.017981     0.000300     NO 
 Maximum Displacement     0.088638     0.001800     NO 
 RMS     Displacement     0.045279     0.001200     NO 
 Predicted change in Energy=-6.081585D-03
 Lowest energy point so far.  Saving SCF results.
 GradGradGradGradGradGradGradGradGradGradGradGradGradGradGradGradGradGrad

 Leave Link  103 at Mon Sep  5 10:35:44 2022, MaxMem=   262144000 cpu:               0.0 elap:               0.0
 (Enter /binaries/g16/l202.exe)
                          Input orientation:                          
 ---------------------------------------------------------------------
 Center     Atomic      Atomic             Coordinates (Angstroms)
 Number     Number       Type             X           Y           Z
 ---------------------------------------------------------------------
      1          6           0        4.291854    3.658717   -0.000781
      2          1           0        4.664272    2.605576   -0.001370
      3          1           0        4.665139    4.187188    0.909089
      4          1           0        4.662939    4.183533   -0.914882
      5          1           0        3.174895    3.658985   -0.001056
 ---------------------------------------------------------------------
                    Distance matrix (angstroms):
                    1          2          3          4          5
     1  C    0.000000
     2  H    1.117050   0.000000
     3  H    1.116462   1.824948   0.000000
     4  H    1.117459   1.823309   1.823976   0.000000
     5  H    1.116960   1.824258   1.824333   1.823322   0.000000
 Stoichiometry    CH4
 Framework group  C1[X(CH4)]
 Deg. of freedom     9
 Full point group                 C1      NOp   1
 RotChk:  IX=0 Diff= 1.79D+00
 Largest Abelian subgroup         C1      NOp   1
 Largest concise Abelian subgroup C1      NOp   1
                         Standard orientation:                         
 ---------------------------------------------------------------------
 Center     Atomic      Atomic             Coordinates (Angstroms)
 Number     Number       Type             X           Y           Z
 ---------------------------------------------------------------------
      1          6           0       -0.000308   -0.000173   -0.000369
      2          1           0        0.788319   -0.605166   -0.510126
      3          1           0       -0.997628   -0.476778   -0.157500
      4          1           0        0.220394    0.049727    1.093941
      5          1           0       -0.009235    1.033255   -0.424099
 ---------------------------------------------------------------------
 Rotational constants (GHZ):         150.8029286         150.7242243         150.6324259
 Leave Link  202 at Mon Sep  5 10:35:44 2022, MaxMem=   262144000 cpu:               0.0 elap:               0.0
 (Enter /binaries/g16/l301.exe)
 Standard basis: VSTO-6G (5D, 7F)
 Ernie: Thresh=  0.10000D-02 Tol=  0.10000D-05 Strict=F.
  NNHCO=     0 NNPyr=     0 NCTC=     0               EPep=         0.000000000
    EC=         6.766723599  ECS=         0.500979579   EG=         0.066343124
   EHC=         0.000000000  EAt=        -6.115142680  AtH=         0.604449838
 EPDDG=         0.000000000  ECC=         7.334046301 EAtT=         6.719592518
 There are     8 symmetry adapted cartesian basis functions of A   symmetry.
 There are     8 symmetry adapted basis functions of A   symmetry.
     8 basis functions,    48 primitive gaussians,     8 cartesian basis functions
     4 alpha electrons        4 beta electrons
       nuclear repulsion energy        14.0536388196 Hartrees.
 IExCor=    0 DFT=F Ex=HF Corr=None ExCW=0 ScaHFX=  1.000000
 ScaDFX=  1.000000  1.000000  1.000000  1.000000 ScalE2=  1.000000  1.000000
 IRadAn=      5 IRanWt=     -1 IRanGd=            0 ICorTp=0 IEmpDi=  4
 Integral buffers will be    131072 words long.
 Regular integral format.
 Two-electron integral symmetry is turned off.
 Leave Link  301 at Mon Sep  5 10:35:44 2022, MaxMem=   262144000 cpu:               0.0 elap:               0.0
 (Enter /binaries/g16/l302.exe)
 Do NDO integrals.
 NPDir=0 NMtPBC=     1 NCelOv=     1 NCel=       1 NClECP=     1 NCelD=      1
         NCelK=      1 NCelE2=     1 NClLst=     1 CellRange=     0.0.
 One-electron integrals computed using PRISM.
 NBasis=     8 RedAO= F EigKep=  0.00D+00  NBF=     8
 NBsUse=     8 1.00D-04 EigRej=  0.00D+00 NBFU=     8
 Leave Link  302 at Mon Sep  5 10:35:44 2022, MaxMem=   262144000 cpu:               0.0 elap:               0.0
 (Enter /binaries/g16/l303.exe)
 DipDrv:  MaxL=1.
 Leave Link  303 at Mon Sep  5 10:35:44 2022, MaxMem=   262144000 cpu:               0.0 elap:               0.0
 (Enter /binaries/g16/l401.exe)
 Initial guess from the checkpoint file:  "in.chk"
 B after Tr=     0.000000    0.000000   -0.000000
         Rot=    0.774573   -0.152401    0.592787   -0.159419 Ang= -78.47 deg.
 Guess basis will be translated and rotated to current coordinates.
 JPrj=0 DoOrth=T DoCkMO=T.
 Leave Link  401 at Mon Sep  5 10:35:44 2022, MaxMem=   262144000 cpu:               0.0 elap:               0.0
 (Enter /binaries/g16/l502.exe)
 Keep J ints in memory in canonical form, NReq=859348.
 FoFCou: FMM=F IPFlag=           0 FMFlag=           0 FMFlg1=           0
         NFxFlg=           0 DoJE=F BraDBF=F KetDBF=F FulRan=T
         wScrn=  0.000000 ICntrl=       600 IOpCl=  2 I1Cent=           0 NGrid=           0
         NMat0=    1 NMatS0=     14 NMatT0=    0 NMatD0=    1 NMtDS0=    0 NMtDT0=    0
 Symmetry not used in FoFCou.
 Two-electron integral symmetry not used.
 Closed shell SCF:
 Using DIIS extrapolation, IDIIS=  1040.
 Overlap will be assumed to be unity.
 NGot=   262144000 LenX=   262083483 LenY=   262082601
 Requested convergence on RMS density matrix=1.00D-08 within 128 cycles.
 Requested convergence on MAX density matrix=1.00D-06.
 Requested convergence on             energy=1.00D-06.
 No special actions if energy rises.

 Cycle   1  Pass 1  IDiag  1:
 E=-0.135734150237052E-01
 DIIS: error= 3.33D-03 at cycle   1 NSaved=   1.
 NSaved= 1 IEnMin= 1 EnMin=-0.135734150237052E-01 IErMin= 1 ErrMin= 3.33D-03
 ErrMax= 3.33D-03  0.00D+00 EMaxC= 1.00D-01 BMatC= 1.72D-04 BMatP= 1.72D-04
 IDIUse=3 WtCom= 9.67D-01 WtEn= 3.33D-02
 Coeff-Com:  0.100D+01
 Coeff-En:   0.100D+01
 Coeff:      0.100D+01
 GapD=    2.000 DampG=2.000 DampE=1.000 DampFc=2.0000 IDamp=-1.
 RMSDP=1.90D-03 MaxDP=1.02D-02              OVMax= 0.00D+00

 Cycle   2  Pass 1  IDiag  3:
 E=-0.139206148559037E-01 Delta-E=       -0.000347199832 Rises=F Damp=F
 DIIS: error= 7.64D-04 at cycle   2 NSaved=   2.
 NSaved= 2 IEnMin= 2 EnMin=-0.139206148559037E-01 IErMin= 2 ErrMin= 7.64D-04
 ErrMax= 7.64D-04  0.00D+00 EMaxC= 1.00D-01 BMatC= 9.68D-06 BMatP= 1.72D-04
 IDIUse=3 WtCom= 9.92D-01 WtEn= 7.64D-03
 Coeff-Com: -0.304D+00 0.130D+01
 Coeff-En:   0.000D+00 0.100D+01
 Coeff:     -0.302D+00 0.130D+01
 Gap=     0.658 Goal=   None    Shift=    0.000
 RMSDP=6.29D-04 MaxDP=3.03D-03 DE=-3.47D-04 OVMax= 3.12D-03

 Cycle   3  Pass 1  IDiag  3:
 E=-0.139431664522274E-01 Delta-E=       -0.000022551596 Rises=F Damp=F
 DIIS: error= 7.01D-05 at cycle   3 NSaved=   3.
 NSaved= 3 IEnMin= 3 EnMin=-0.139431664522274E-01 IErMin= 3 ErrMin= 7.01D-05
 ErrMax= 7.01D-05  0.00D+00 EMaxC= 1.00D-01 BMatC= 8.45D-08 BMatP= 9.68D-06
 IDIUse=1 WtCom= 1.00D+00 WtEn= 0.00D+00
 Coeff-Com:  0.275D+00-0.119D+01 0.192D+01
 Coeff:      0.275D+00-0.119D+01 0.192D+01
 Gap=     0.658 Goal=   None    Shift=    0.000
 RMSDP=1.49D-04 MaxDP=4.98D-04 DE=-2.26D-05 OVMax= 4.98D-04

 Cycle   4  Pass 1  IDiag  3:
 E=-0.139436579630434E-01 Delta-E=       -0.000000491511 Rises=F Damp=F
 DIIS: error= 8.04D-06 at cycle   4 NSaved=   4.
 NSaved= 4 IEnMin= 4 EnMin=-0.139436579630434E-01 IErMin= 4 ErrMin= 8.04D-06
 ErrMax= 8.04D-06  0.00D+00 EMaxC= 1.00D-01 BMatC= 7.88D-10 BMatP= 8.45D-08
 IDIUse=1 WtCom= 1.00D+00 WtEn= 0.00D+00
 Coeff-Com: -0.232D+00 0.101D+01-0.163D+01 0.185D+01
 Coeff:     -0.232D+00 0.101D+01-0.163D+01 0.185D+01
 Gap=     0.658 Goal=   None    Shift=    0.000
 RMSDP=1.36D-05 MaxDP=3.28D-05 DE=-4.92D-07 OVMax= 4.81D-05

 Cycle   5  Pass 1  IDiag  3:
 E=-0.139436623191607E-01 Delta-E=       -0.000000004356 Rises=F Damp=F
 DIIS: error= 4.74D-07 at cycle   5 NSaved=   5.
 NSaved= 5 IEnMin= 5 EnMin=-0.139436623191607E-01 IErMin= 5 ErrMin= 4.74D-07
 ErrMax= 4.74D-07  0.00D+00 EMaxC= 1.00D-01 BMatC= 5.44D-12 BMatP= 7.88D-10
 IDIUse=1 WtCom= 1.00D+00 WtEn= 0.00D+00
 Coeff-Com:  0.120D+00-0.524D+00 0.844D+00-0.970D+00 0.153D+01
 Coeff:      0.120D+00-0.524D+00 0.844D+00-0.970D+00 0.153D+01
 Gap=     0.658 Goal=   None    Shift=    0.000
 RMSDP=8.99D-07 MaxDP=2.20D-06 DE=-4.36D-09 OVMax= 2.79D-06

 Cycle   6  Pass 1  IDiag  3:
 E=-0.139436623436939E-01 Delta-E=       -0.000000000025 Rises=F Damp=F
 DIIS: error= 9.18D-08 at cycle   6 NSaved=   6.
 NSaved= 6 IEnMin= 6 EnMin=-0.139436623436939E-01 IErMin= 6 ErrMin= 9.18D-08
 ErrMax= 9.18D-08  0.00D+00 EMaxC= 1.00D-01 BMatC= 1.48D-13 BMatP= 5.44D-12
 IDIUse=1 WtCom= 1.00D+00 WtEn= 0.00D+00
 Coeff-Com: -0.406D-01 0.176D+00-0.284D+00 0.327D+00-0.558D+00 0.138D+01
 Coeff:     -0.406D-01 0.176D+00-0.284D+00 0.327D+00-0.558D+00 0.138D+01
 Gap=     0.658 Goal=   None    Shift=    0.000
 RMSDP=1.21D-07 MaxDP=3.46D-07 DE=-2.45D-11 OVMax= 0.00D+00

 Cycle   7  Pass 1  IDiag  3:
 E=-0.139436623441842E-01 Delta-E=       -0.000000000000 Rises=F Damp=F
 DIIS: error= 2.96D-08 at cycle   7 NSaved=   7.
 NSaved= 7 IEnMin= 7 EnMin=-0.139436623441842E-01 IErMin= 7 ErrMin= 2.96D-08
 ErrMax= 2.96D-08  0.00D+00 EMaxC= 1.00D-01 BMatC= 9.09D-15 BMatP= 1.48D-13
 IDIUse=1 WtCom= 1.00D+00 WtEn= 0.00D+00
 Coeff-Com:  0.371D-03-0.166D-02 0.269D-02-0.280D-02 0.443D-02-0.120D+00
 Coeff-Com:  0.112D+01
 Coeff:      0.371D-03-0.166D-02 0.269D-02-0.280D-02 0.443D-02-0.120D+00
 Coeff:      0.112D+01
 Gap=     0.658 Goal=   None    Shift=    0.000
 RMSDP=2.25D-08 MaxDP=8.64D-08 DE=-4.90D-13 OVMax= 0.00D+00

 Cycle   8  Pass 1  IDiag  3:
 E=-0.139436623441913E-01 Delta-E=       -0.000000000000 Rises=F Damp=F
 DIIS: error= 2.31D-09 at cycle   8 NSaved=   8.
 NSaved= 8 IEnMin= 8 EnMin=-0.139436623441913E-01 IErMin= 8 ErrMin= 2.31D-09
 ErrMax= 2.31D-09  0.00D+00 EMaxC= 1.00D-01 BMatC= 1.72D-16 BMatP= 9.09D-15
 IDIUse=1 WtCom= 1.00D+00 WtEn= 0.00D+00
 Coeff-Com:  0.105D-03-0.429D-03 0.677D-03-0.996D-03 0.255D-02 0.556D-01
 Coeff-Com: -0.740D+00 0.168D+01
 Coeff:      0.105D-03-0.429D-03 0.677D-03-0.996D-03 0.255D-02 0.556D-01
 Coeff:     -0.740D+00 0.168D+01
 Gap=     0.658 Goal=   None    Shift=    0.000
 RMSDP=6.03D-09 MaxDP=1.43D-08 DE=-7.11D-15 OVMax= 3.06D-08

 Cycle   9  Pass 2  IDiag  1:
 SCF Done:  E(RAM1) = -0.139436623442E-01 A.U. after    9 cycles
            NFock=  8  Conv=0.60D-08     -V/T= 0.9986
 KE=-9.870939331794D+00 PE=-1.322058132821D+01 EE= 9.023938178050D+00
 Leave Link  502 at Mon Sep  5 10:35:44 2022, MaxMem=   262144000 cpu:               0.0 elap:               0.0
 (Enter /binaries/g16/l701.exe)
 ... and contract with generalized density number  0.
 Compute integral first derivatives.
 Leave Link  701 at Mon Sep  5 10:35:44 2022, MaxMem=   262144000 cpu:               0.0 elap:               0.0
 (Enter /binaries/g16/l702.exe)
 L702 exits ... SP integral derivatives will be done elsewhere.
 Leave Link  702 at Mon Sep  5 10:35:44 2022, MaxMem=   262144000 cpu:               0.0 elap:               0.0
 (Enter /binaries/g16/l703.exe)
 Integral derivatives from FoFJK, PRISM(SPDF).
 Compute integral first derivatives, UseDBF=F ICtDFT=           0.
 Calling FoFJK, ICntrl=      2127 FMM=F ISym2X=0 I1Cent= 0 IOpClX= 0 NMat=1 NMatS=1 NMatT=0.
 FoFJK:  IHMeth= 8 ICntrl=    2127 DoSepK=F KAlg= 0 I1Cent=           0 FoldK=F
 IRaf=         0 NMat=       1 IRICut=       1 DoRegI=T DoRafI=F ISym2E= 0 IDoP0=3 IntGTp=3.
 FoFCou: FMM=F IPFlag=           0 FMFlag=      100000 FMFlg1=         800
         NFxFlg=           0 DoJE=F BraDBF=F KetDBF=F FulRan=T
         wScrn=  0.000000 ICntrl=      2127 IOpCl=  0 I1Cent=           0 NGrid=           0
         NMat0=    1 NMatS0=      1 NMatT0=    0 NMatD0=    1 NMtDS0=    0 NMtDT0=    0
 Symmetry not used in FoFCou.
 Leave Link  703 at Mon Sep  5 10:35:44 2022, MaxMem=   262144000 cpu:               0.0 elap:               0.0
 (Enter /binaries/g16/l716.exe)
 Dipole        = 1.67805670D-04 1.02266089D-04 2.12613730D-04
 ***** Axes restored to original set *****
 -------------------------------------------------------------------
 Center     Atomic                   Forces (Hartrees/Bohr)
 Number     Number              X              Y              Z
 -------------------------------------------------------------------
      1        6          -0.000000459   -0.000006490   -0.000792600
      2        1          -0.001340696    0.003760721    0.000186057
      3        1          -0.001247159   -0.001841449   -0.002965322
      4        1          -0.001327677   -0.001876663    0.003431240
      5        1           0.003915990   -0.000036120    0.000140625
 -------------------------------------------------------------------
 Cartesian Forces:  Max     0.003915990 RMS     0.002045432
 Leave Link  716 at Mon Sep  5 10:35:44 2022, MaxMem=   262144000 cpu:               0.0 elap:               0.0
 (Enter /binaries/g16/l103.exe)

 GradGradGradGradGradGradGradGradGradGradGradGradGradGradGradGradGradGrad
 Berny optimization.
 Using GEDIIS/GDIIS optimizer.
 FormGI is forming the generalized inverse of G from B-inverse, IUseBI=4.
 Internal  Forces:  Max     0.004129082 RMS     0.002034862
 Search for a local minimum.
 Step number   2 out of a maximum of   25 on scan point     1 out of  1001
 All quantities printed in internal units (Hartrees-Bohrs-Radians)
 RMS Force = .21057D-02 SwitMx=.10000D-02 MixMth= 1
 Mixed Optimization -- RFO/linear search
 Update second derivatives using D2CorX and points    1    2
 DE= -4.98D-03 DEPred=-6.08D-03 R= 8.19D-01
 TightC=F SS=  1.41D+00  RLast= 1.75D-01 DXNew= 5.0454D-01 5.2622D-01
 Trust test= 8.19D-01 RLast= 1.75D-01 DXMaxT set to 5.05D-01
 The second derivative matrix:
                          R1        R2        R3        R4        A1
           R1           0.38675
           R2           0.01389   0.38861
           R3           0.01464   0.01421   0.38074
           R4           0.01431   0.01374   0.01450   0.38646
           A1          -0.00024  -0.00026  -0.00021  -0.00024   0.16000
           A2          -0.00016  -0.00016  -0.00014  -0.00016  -0.00000
           A3          -0.00002  -0.00002  -0.00002  -0.00002  -0.00000
           A4           0.00034   0.00036   0.00029   0.00034   0.00000
           A5           0.00025   0.00025   0.00023   0.00025   0.00000
           A6          -0.00016  -0.00017  -0.00015  -0.00016  -0.00000
           A7           0.00058   0.00060   0.00052   0.00058   0.00000
           D1          -0.00000  -0.00000  -0.00000  -0.00000   0.00000
           D2           0.00069   0.00072   0.00063   0.00069   0.00000
           D3           0.00032   0.00034   0.00029   0.00032   0.00000
           D4          -0.00037  -0.00038  -0.00033  -0.00037  -0.00000
                          A2        A3        A4        A5        A6
           A2           0.16000
           A3          -0.00000   0.16000
           A4           0.00000   0.00000   0.16000
           A5          -0.00000   0.00000  -0.00000   0.16000
           A6           0.00000  -0.00000   0.00000  -0.00000   0.16000
           A7          -0.00000   0.00000  -0.00000   0.00000  -0.00000
           D1           0.00000  -0.00000  -0.00000  -0.00000   0.00000
           D2          -0.00000   0.00000  -0.00000   0.00000  -0.00000
           D3          -0.00000   0.00000  -0.00000   0.00000  -0.00000
           D4           0.00000  -0.00000   0.00000  -0.00000   0.00000
                          A7        D1        D2        D3        D4
           A7           0.16000
           D1          -0.00000   0.00434
           D2           0.00000  -0.00000   0.00500
           D3           0.00000  -0.00000   0.00000   0.00499
           D4          -0.00000   0.00000  -0.00000  -0.00000   0.00500
 ITU=  1  0
 Use linear search instead of GDIIS.
     Eigenvalues ---    0.05903   0.08386   0.13017   0.16000   0.25787
     Eigenvalues ---    0.36758   0.37282   0.428391000.000001000.00000
     Eigenvalues --- 1000.000001000.000001000.000001000.000001000.00000
 RFO step:  Lambda=-1.50502407D-06 EMin= 5.90284873D-02
 Quartic linear search produced a step of -0.11504.
 Iteration  1 RMS(Cart)=  0.00523806 RMS(Int)=  0.00000290
 Iteration  2 RMS(Cart)=  0.00000213 RMS(Int)=  0.00000089
 Iteration  3 RMS(Cart)=  0.00000000 RMS(Int)=  0.00000089
 Iteration  1 RMS(Cart)=  0.00000049 RMS(Int)=  0.00000170
 ITry= 1 IFail=0 DXMaxC= 1.03D-02 DCOld= 1.00D+10 DXMaxT= 5.05D-01 DXLimC= 3.00D+00 Rises=F
 Variable       Old X    -DE/DX   Delta X   Delta X   Delta X     New X
                                 (Linear)    (Quad)   (Total)
    R1        2.11092  -0.00398  -0.01023   0.00025  -0.00998   2.10094
    R2        2.10981  -0.00372  -0.01062   0.00087  -0.00975   2.10005
    R3        2.11169  -0.00413  -0.00924  -0.00142  -0.01067   2.10103
    R4        2.11075  -0.00392  -0.01021   0.00016  -0.01005   2.10070
    A1        1.91264  -0.00004  -0.00014   0.00021   0.00006   1.91270
    A2        1.90883   0.00006   0.00002   0.00079   0.00080   1.90964
    A3        1.91094  -0.00005  -0.00003  -0.00051  -0.00054   1.91040
    A4        1.91061  -0.00001   0.00019  -0.00035  -0.00016   1.91045
    A5        1.91180  -0.00008  -0.00004  -0.00098  -0.00102   1.91078
    A6        1.90897   0.00011   0.00001   0.00085   0.00086   1.90983
    A7        0.61429   0.00007   0.00000   0.00000   0.00001   0.61430
    D1       -2.09574   0.00002   0.00005  -0.00052  -0.00047  -2.09621
    D2        2.09776  -0.00013  -0.00022  -0.00066  -0.00088   2.09688
    D3       -2.09136  -0.00012  -0.00001  -0.00117  -0.00117  -2.09254
    D4        2.09406   0.00001   0.00021  -0.00051  -0.00029   2.09377
         Item               Value     Threshold  Converged?
 Maximum Force            0.004129     0.000450     NO 
 RMS     Force            0.002106     0.000300     NO 
 Maximum Displacement     0.010348     0.001800     NO 
 RMS     Displacement     0.005238     0.001200     NO 
 Predicted change in Energy=-7.193776D-05
 Lowest energy point so far.  Saving SCF results.
 GradGradGradGradGradGradGradGradGradGradGradGradGradGradGradGradGradGrad

 Leave Link  103 at Mon Sep  5 10:35:44 2022, MaxMem=   262144000 cpu:               0.0 elap:               0.0
 (Enter /binaries/g16/l202.exe)
                          Input orientation:                          
 ---------------------------------------------------------------------
 Center     Atomic      Atomic             Coordinates (Angstroms)
 Number     Number       Type             X           Y           Z
 ---------------------------------------------------------------------
      1          6           0        4.292011    3.658720   -0.001200
      2          1           0        4.662248    2.610411   -0.001338
      3          1           0        4.663089    4.184814    0.904624
      4          1           0        4.661381    4.181225   -0.910424
      5          1           0        3.180371    3.658830   -0.000661
 ---------------------------------------------------------------------
                    Distance matrix (angstroms):
                    1          2          3          4          5
     1  C    0.000000
     2  H    1.111768   0.000000
     3  H    1.111300   1.816455   0.000000
     4  H    1.111816   1.814909   1.815052   0.000000
     5  H    1.111640   1.815253   1.815118   1.814926   0.000000
 Stoichiometry    CH4
 Framework group  C1[X(CH4)]
 Deg. of freedom     9
 Full point group                 C1      NOp   1
 RotChk:  IX=0 Diff= 1.03D+00
 Largest Abelian subgroup         C1      NOp   1
 Largest concise Abelian subgroup C1      NOp   1
                         Standard orientation:                         
 ---------------------------------------------------------------------
 Center     Atomic      Atomic             Coordinates (Angstroms)
 Number     Number       Type             X           Y           Z
 ---------------------------------------------------------------------
      1          6           0       -0.000121   -0.000011   -0.000293
      2          1           0        0.907892   -0.104208   -0.633289
      3          1           0       -0.901142   -0.263691   -0.594955
      4          1           0        0.078946   -0.681736    0.874426
      5          1           0       -0.084970    1.049704    0.355576
 ---------------------------------------------------------------------
 Rotational constants (GHZ):         152.2737261         152.1469702         152.1030037
 Leave Link  202 at Mon Sep  5 10:35:44 2022, MaxMem=   262144000 cpu:               0.0 elap:               0.0
 (Enter /binaries/g16/l301.exe)
 Standard basis: VSTO-6G (5D, 7F)
 Ernie: Thresh=  0.10000D-02 Tol=  0.10000D-05 Strict=F.
  NNHCO=     0 NNPyr=     0 NCTC=     0               EPep=         0.000000000
    EC=         6.784209432  ECS=         0.509775872   EG=         0.066566392
   EHC=         0.000000000  EAt=        -6.115142680  AtH=         0.604449838
 EPDDG=         0.000000000  ECC=         7.360551696 EAtT=         6.719592518
 There are     8 symmetry adapted cartesian basis functions of A   symmetry.
 There are     8 symmetry adapted basis functions of A   symmetry.
     8 basis functions,    48 primitive gaussians,     8 cartesian basis functions
     4 alpha electrons        4 beta electrons
       nuclear repulsion energy        14.0801442139 Hartrees.
 IExCor=    0 DFT=F Ex=HF Corr=None ExCW=0 ScaHFX=  1.000000
 ScaDFX=  1.000000  1.000000  1.000000  1.000000 ScalE2=  1.000000  1.000000
 IRadAn=      5 IRanWt=     -1 IRanGd=            0 ICorTp=0 IEmpDi=  4
 Integral buffers will be    131072 words long.
 Regular integral format.
 Two-electron integral symmetry is turned off.
 Leave Link  301 at Mon Sep  5 10:35:44 2022, MaxMem=   262144000 cpu:               0.0 elap:               0.0
 (Enter /binaries/g16/l302.exe)
 Do NDO integrals.
 NPDir=0 NMtPBC=     1 NCelOv=     1 NCel=       1 NClECP=     1 NCelD=      1
         NCelK=      1 NCelE2=     1 NClLst=     1 CellRange=     0.0.
 One-electron integrals computed using PRISM.
 NBasis=     8 RedAO= F EigKep=  0.00D+00  NBF=     8
 NBsUse=     8 1.00D-04 EigRej=  0.00D+00 NBFU=     8
 Leave Link  302 at Mon Sep  5 10:35:44 2022, MaxMem=   262144000 cpu:               0.0 elap:               0.0
 (Enter /binaries/g16/l303.exe)
 DipDrv:  MaxL=1.
 Leave Link  303 at Mon Sep  5 10:35:44 2022, MaxMem=   262144000 cpu:               0.0 elap:               0.0
 (Enter /binaries/g16/l401.exe)
 Initial guess from the checkpoint file:  "in.chk"
 B after Tr=    -0.000000    0.000000    0.000000
         Rot=    0.931818   -0.352530    0.078195   -0.036378 Ang= -42.56 deg.
 Guess basis will be translated and rotated to current coordinates.
 JPrj=0 DoOrth=T DoCkMO=T.
 Leave Link  401 at Mon Sep  5 10:35:44 2022, MaxMem=   262144000 cpu:               0.0 elap:               0.0
 (Enter /binaries/g16/l502.exe)
 Keep J ints in memory in canonical form, NReq=859348.
 FoFCou: FMM=F IPFlag=           0 FMFlag=           0 FMFlg1=           0
         NFxFlg=           0 DoJE=F BraDBF=F KetDBF=F FulRan=T
         wScrn=  0.000000 ICntrl=       600 IOpCl=  2 I1Cent=           0 NGrid=           0
         NMat0=    1 NMatS0=     14 NMatT0=    0 NMatD0=    1 NMtDS0=    0 NMtDT0=    0
 Symmetry not used in FoFCou.
 Two-electron integral symmetry not used.
 Closed shell SCF:
 Using DIIS extrapolation, IDIIS=  1040.
 Overlap will be assumed to be unity.
 NGot=   262144000 LenX=   262083483 LenY=   262082601
 Requested convergence on RMS density matrix=1.00D-08 within 128 cycles.
 Requested convergence on MAX density matrix=1.00D-06.
 Requested convergence on             energy=1.00D-06.
 No special actions if energy rises.

 Cycle   1  Pass 1  IDiag  1:
 E=-0.140189263835673E-01
 DIIS: error= 3.82D-04 at cycle   1 NSaved=   1.
 NSaved= 1 IEnMin= 1 EnMin=-0.140189263835673E-01 IErMin= 1 ErrMin= 3.82D-04
 ErrMax= 3.82D-04  0.00D+00 EMaxC= 1.00D-01 BMatC= 2.36D-06 BMatP= 2.36D-06
 IDIUse=3 WtCom= 9.96D-01 WtEn= 3.82D-03
 Coeff-Com:  0.100D+01
 Coeff-En:   0.100D+01
 Coeff:      0.100D+01
 RMSDP=2.24D-04 MaxDP=1.18D-03              OVMax= 0.00D+00

 Cycle   2  Pass 1  IDiag  3:
 E=-0.140237069841529E-01 Delta-E=       -0.000004780601 Rises=F Damp=F
 DIIS: error= 8.90D-05 at cycle   2 NSaved=   2.
 NSaved= 2 IEnMin= 2 EnMin=-0.140237069841529E-01 IErMin= 2 ErrMin= 8.90D-05
 ErrMax= 8.90D-05  0.00D+00 EMaxC= 1.00D-01 BMatC= 1.35D-07 BMatP= 2.36D-06
 IDIUse=1 WtCom= 1.00D+00 WtEn= 0.00D+00
 Coeff-Com: -0.306D+00 0.131D+01
 Coeff:     -0.306D+00 0.131D+01
 Gap=     0.660 Goal=   None    Shift=    0.000
 RMSDP=7.57D-05 MaxDP=3.53D-04 DE=-4.78D-06 OVMax= 3.63D-04

 Cycle   3  Pass 1  IDiag  3:
 E=-0.140240277303203E-01 Delta-E=       -0.000000320746 Rises=F Damp=F
 DIIS: error= 8.16D-06 at cycle   3 NSaved=   3.
 NSaved= 3 IEnMin= 3 EnMin=-0.140240277303203E-01 IErMin= 3 ErrMin= 8.16D-06
 ErrMax= 8.16D-06  0.00D+00 EMaxC= 1.00D-01 BMatC= 1.35D-09 BMatP= 1.35D-07
 IDIUse=1 WtCom= 1.00D+00 WtEn= 0.00D+00
 Coeff-Com:  0.271D+00-0.117D+01 0.190D+01
 Coeff:      0.271D+00-0.117D+01 0.190D+01
 Gap=     0.660 Goal=   None    Shift=    0.000
 RMSDP=1.87D-05 MaxDP=6.22D-05 DE=-3.21D-07 OVMax= 5.90D-05

 Cycle   4  Pass 1  IDiag  3:
 E=-0.140240355835104E-01 Delta-E=       -0.000000007853 Rises=F Damp=F
 DIIS: error= 4.89D-07 at cycle   4 NSaved=   4.
 NSaved= 4 IEnMin= 4 EnMin=-0.140240355835104E-01 IErMin= 4 ErrMin= 4.89D-07
 ErrMax= 4.89D-07  0.00D+00 EMaxC= 1.00D-01 BMatC= 6.11D-12 BMatP= 1.35D-09
 IDIUse=1 WtCom= 1.00D+00 WtEn= 0.00D+00
 Coeff-Com: -0.182D+00 0.785D+00-0.128D+01 0.168D+01
 Coeff:     -0.182D+00 0.785D+00-0.128D+01 0.168D+01
 Gap=     0.660 Goal=   None    Shift=    0.000
 RMSDP=1.11D-06 MaxDP=2.37D-06 DE=-7.85D-09 OVMax= 0.00D+00

 Cycle   5  Pass 1  IDiag  3:
 E=-0.140240356150070E-01 Delta-E=       -0.000000000031 Rises=F Damp=F
 DIIS: error= 4.46D-08 at cycle   5 NSaved=   5.
 NSaved= 5 IEnMin= 5 EnMin=-0.140240356150070E-01 IErMin= 5 ErrMin= 4.46D-08
 ErrMax= 4.46D-08  0.00D+00 EMaxC= 1.00D-01 BMatC= 2.81D-14 BMatP= 6.11D-12
 IDIUse=1 WtCom= 1.00D+00 WtEn= 0.00D+00
 Coeff-Com:  0.105D+00-0.451D+00 0.736D+00-0.975D+00 0.159D+01
 Coeff:      0.105D+00-0.451D+00 0.736D+00-0.975D+00 0.159D+01
 Gap=     0.660 Goal=   None    Shift=    0.000
 RMSDP=7.14D-08 MaxDP=2.07D-07 DE=-3.15D-11 OVMax= 0.00D+00

 Cycle   6  Pass 1  IDiag  3:
 E=-0.140240356151686E-01 Delta-E=       -0.000000000000 Rises=F Damp=F
 DIIS: error= 5.36D-09 at cycle   6 NSaved=   6.
 NSaved= 6 IEnMin= 6 EnMin=-0.140240356151686E-01 IErMin= 6 ErrMin= 5.36D-09
 ErrMax= 5.36D-09  0.00D+00 EMaxC= 1.00D-01 BMatC= 5.82D-16 BMatP= 2.81D-14
 IDIUse=1 WtCom= 1.00D+00 WtEn= 0.00D+00
 Coeff-Com: -0.342D-01 0.147D+00-0.241D+00 0.320D+00-0.612D+00 0.142D+01
 Coeff:     -0.342D-01 0.147D+00-0.241D+00 0.320D+00-0.612D+00 0.142D+01
 Gap=     0.660 Goal=   None    Shift=    0.000
 RMSDP=1.04D-08 MaxDP=2.43D-08 DE=-1.62D-13 OVMax= 4.17D-08

 Cycle   7  Pass 1  IDiag  3:
 E=-0.140240356151526E-01 Delta-E=        0.000000000000 Rises=F Damp=F
 DIIS: error= 4.26D-10 at cycle   7 NSaved=   7.
 NSaved= 7 IEnMin= 6 EnMin=-0.140240356151686E-01 IErMin= 7 ErrMin= 4.26D-10
 ErrMax= 4.26D-10  0.00D+00 EMaxC= 1.00D-01 BMatC= 5.32D-18 BMatP= 5.82D-16
 IDIUse=1 WtCom= 1.00D+00 WtEn= 0.00D+00
 Coeff-Com:  0.292D-02-0.126D-01 0.205D-01-0.277D-01 0.637D-01-0.204D+00
 Coeff-Com:  0.116D+01
 Coeff:      0.292D-02-0.126D-01 0.205D-01-0.277D-01 0.637D-01-0.204D+00
 Coeff:      0.116D+01
 Gap=     0.660 Goal=   None    Shift=    0.000
 RMSDP=7.27D-10 MaxDP=2.17D-09 DE= 1.60D-14 OVMax= 0.00D+00

 SCF Done:  E(RAM1) = -0.140240356152E-01 A.U. after    7 cycles
            NFock=  7  Conv=0.73D-09     -V/T= 0.9986
 KE=-9.877200900188D+00 PE=-1.325369889541D+01 EE= 9.036731546035D+00
 Leave Link  502 at Mon Sep  5 10:35:44 2022, MaxMem=   262144000 cpu:               0.0 elap:               0.0
 (Enter /binaries/g16/l701.exe)
 ... and contract with generalized density number  0.
 Compute integral first derivatives.
 Leave Link  701 at Mon Sep  5 10:35:44 2022, MaxMem=   262144000 cpu:               0.0 elap:               0.0
 (Enter /binaries/g16/l702.exe)
 L702 exits ... SP integral derivatives will be done elsewhere.
 Leave Link  702 at Mon Sep  5 10:35:44 2022, MaxMem=   262144000 cpu:               0.0 elap:               0.0
 (Enter /binaries/g16/l703.exe)
 Integral derivatives from FoFJK, PRISM(SPDF).
 Compute integral first derivatives, UseDBF=F ICtDFT=           0.
 Calling FoFJK, ICntrl=      2127 FMM=F ISym2X=0 I1Cent= 0 IOpClX= 0 NMat=1 NMatS=1 NMatT=0.
 FoFJK:  IHMeth= 8 ICntrl=    2127 DoSepK=F KAlg= 0 I1Cent=           0 FoldK=F
 IRaf=         0 NMat=       1 IRICut=       1 DoRegI=T DoRafI=F ISym2E= 0 IDoP0=3 IntGTp=3.
 FoFCou: FMM=F IPFlag=           0 FMFlag=      100000 FMFlg1=         800
         NFxFlg=           0 DoJE=F BraDBF=F KetDBF=F FulRan=T
         wScrn=  0.000000 ICntrl=      2127 IOpCl=  0 I1Cent=           0 NGrid=           0
         NMat0=    1 NMatS0=      1 NMatT0=    0 NMatD0=    1 NMtDS0=    0 NMtDT0=    0
 Symmetry not used in FoFCou.
 Leave Link  703 at Mon Sep  5 10:35:44 2022, MaxMem=   262144000 cpu:               0.0 elap:               0.0
 (Enter /binaries/g16/l716.exe)
 Dipole        = 6.03342171D-05 9.57485965D-06 1.83809914D-04
 ***** Axes restored to original set *****
 -------------------------------------------------------------------
 Center     Atomic                   Forces (Hartrees/Bohr)
 Number     Number              X              Y              Z
 -------------------------------------------------------------------
      1        6          -0.000082203   -0.000063782   -0.000440342
      2        1           0.000005388    0.000118854    0.000149775
      3        1           0.000096103   -0.000037667    0.000167664
      4        1           0.000002130   -0.000002264    0.000070262
      5        1          -0.000021419   -0.000015141    0.000052641
 -------------------------------------------------------------------
 Cartesian Forces:  Max     0.000440342 RMS     0.000138681
 Leave Link  716 at Mon Sep  5 10:35:44 2022, MaxMem=   262144000 cpu:               0.0 elap:               0.0
 (Enter /binaries/g16/l103.exe)

 GradGradGradGradGradGradGradGradGradGradGradGradGradGradGradGradGradGrad
 Berny optimization.
 Using GEDIIS/GDIIS optimizer.
 FormGI is forming the generalized inverse of G from B-inverse, IUseBI=4.
 Internal  Forces:  Max     0.000138408 RMS     0.000063736
 Search for a local minimum.
 Step number   3 out of a maximum of   25 on scan point     1 out of  1001
 All quantities printed in internal units (Hartrees-Bohrs-Radians)
 RMS Force = .31879D-04 SwitMx=.10000D-02 MixMth= 2
 Mixed Optimization -- En-DIIS/RFO-DIIS
 Update second derivatives using D2CorX and points    1    2    3
 DE= -8.04D-05 DEPred=-7.19D-05 R= 1.12D+00
 TightC=F SS=  1.41D+00  RLast= 2.04D-02 DXNew= 8.4853D-01 6.1099D-02
 Trust test= 1.12D+00 RLast= 2.04D-02 DXMaxT set to 5.05D-01
 The second derivative matrix:
                          R1        R2        R3        R4        A1
           R1           0.37621
           R2           0.00453   0.38037
           R3           0.00389   0.00471   0.36977
           R4           0.00458   0.00518   0.00462   0.37756
           A1          -0.00041  -0.00043  -0.00039  -0.00042   0.16000
           A2           0.00248   0.00240   0.00267   0.00249  -0.00001
           A3          -0.00094  -0.00091  -0.00100  -0.00094   0.00000
           A4          -0.00029  -0.00024  -0.00037  -0.00029   0.00001
           A5          -0.00219  -0.00210  -0.00237  -0.00219   0.00001
           A6           0.00136   0.00129   0.00146   0.00134  -0.00000
           A7           0.00026   0.00029   0.00019   0.00026   0.00000
           D1           0.00095   0.00093   0.00102   0.00096  -0.00001
           D2           0.00093   0.00095   0.00088   0.00093  -0.00000
           D3           0.00114   0.00114   0.00117   0.00116  -0.00001
           D4           0.00022   0.00019   0.00029   0.00022  -0.00000
                          A2        A3        A4        A5        A6
           A2           0.15988
           A3           0.00007   0.15997
           A4           0.00004  -0.00002   0.15999
           A5           0.00014  -0.00007  -0.00004   0.15984
           A6          -0.00011   0.00005   0.00003   0.00012   0.15991
           A7           0.00002  -0.00001  -0.00001  -0.00002   0.00001
           D1          -0.00001   0.00001   0.00000   0.00002  -0.00002
           D2           0.00002  -0.00000  -0.00001  -0.00001   0.00000
           D3           0.00000   0.00001   0.00000   0.00001  -0.00002
           D4          -0.00001   0.00001   0.00001   0.00002  -0.00002
                          A7        D1        D2        D3        D4
           A7           0.16000
           D1           0.00000   0.00435
           D2           0.00000   0.00001   0.00500
           D3           0.00000   0.00001   0.00001   0.00501
           D4           0.00000   0.00000   0.00000   0.00000   0.00500
 ITU=  1  1  0
 Use linear search instead of GDIIS.
     Eigenvalues ---    0.05897   0.08389   0.13005   0.16000   0.25713
     Eigenvalues ---    0.36693   0.37283   0.390471000.000001000.00000
     Eigenvalues --- 1000.000001000.000001000.000001000.000001000.00000
 RFO step:  Lambda=-9.48207450D-08 EMin= 5.89709743D-02
 Quartic linear search produced a step of  0.00122.
 Iteration  1 RMS(Cart)=  0.00017698 RMS(Int)=  0.00000007
 Iteration  2 RMS(Cart)=  0.00000005 RMS(Int)=  0.00000004
 Iteration  1 RMS(Cart)=  0.00000043 RMS(Int)=  0.00000149
 ITry= 1 IFail=0 DXMaxC= 3.33D-04 DCOld= 1.00D+10 DXMaxT= 5.05D-01 DXLimC= 3.00D+00 Rises=F
 Variable       Old X    -DE/DX   Delta X   Delta X   Delta X     New X
                                 (Linear)    (Quad)   (Total)
    R1        2.10094  -0.00010  -0.00001  -0.00000  -0.00002   2.10092
    R2        2.10005   0.00014  -0.00001   0.00013   0.00012   2.10017
    R3        2.10103  -0.00006  -0.00001  -0.00015  -0.00016   2.10086
    R4        2.10070   0.00002  -0.00001   0.00007   0.00005   2.10075
    A1        1.91270  -0.00007   0.00000   0.00004   0.00004   1.91275
    A2        1.90964   0.00004   0.00000   0.00032   0.00033   1.90996
    A3        1.91040   0.00000  -0.00000  -0.00021  -0.00021   1.91018
    A4        1.91045   0.00001  -0.00000  -0.00015  -0.00015   1.91030
    A5        1.91078  -0.00000  -0.00000  -0.00040  -0.00040   1.91038
    A6        1.90983   0.00003   0.00000   0.00039   0.00039   1.91021
    A7        0.61430   0.00007   0.00000   0.00000   0.00000   0.61430
    D1       -2.09621   0.00006  -0.00000  -0.00016  -0.00016  -2.09637
    D2        2.09688  -0.00009  -0.00000  -0.00032  -0.00032   2.09656
    D3       -2.09254  -0.00006  -0.00000  -0.00051  -0.00051  -2.09304
    D4        2.09377   0.00002  -0.00000  -0.00019  -0.00019   2.09358
         Item               Value     Threshold  Converged?
 Maximum Force            0.000058     0.000450     YES
 RMS     Force            0.000032     0.000300     YES
 Maximum Displacement     0.000333     0.001800     YES
 RMS     Displacement     0.000177     0.001200     YES
 Predicted change in Energy=-4.798037D-08
 Optimization completed.
    -- Stationary point found.
                           ----------------------------
                           !   Optimized Parameters   !
                           ! (Angstroms and Degrees)  !
 --------------------------                            --------------------------
 ! Name  Definition              Value          Derivative Info.                !
 --------------------------------------------------------------------------------
 ! R1    R(1,2)                  1.1118         -DE/DX =   -0.0001              !
 ! R2    R(1,3)                  1.1113         -DE/DX =    0.0001              !
 ! R3    R(1,4)                  1.1118         -DE/DX =   -0.0001              !
 ! R4    R(1,5)                  1.1116         -DE/DX =    0.0                 !
 ! A1    A(2,1,3)              109.5898         -DE/DX =   -0.0001              !
 ! A2    A(2,1,4)              109.4142         -DE/DX =    0.0                 !
 ! A3    A(2,1,5)              109.4576         -DE/DX =    0.0                 !
 ! A4    A(3,1,4)              109.461          -DE/DX =    0.0                 !
 ! A5    A(3,1,5)              109.4796         -DE/DX =    0.0                 !
 ! A6    A(4,1,5)              109.425          -DE/DX =    0.0                 !
 ! A7    A(1,2,3)               35.1966         -DE/DX =    0.0001              !
 ! D1    D(2,1,4,3)           -120.104          -DE/DX =    0.0001              !
 ! D2    D(2,1,5,3)            120.1421         -DE/DX =   -0.0001              !
 ! D3    D(2,1,5,4)           -119.8936         -DE/DX =   -0.0001              !
 ! D4    D(3,1,5,4)            119.9643         -DE/DX =    0.0                 !
 --------------------------------------------------------------------------------
 Lowest energy point so far.  Saving SCF results.
 Iteration  1 RMS(Cart)=  0.00014626 RMS(Int)=  0.00050912
 Iteration  2 RMS(Cart)=  0.00000005 RMS(Int)=  0.00050912
 Iteration  1 RMS(Cart)=  0.00012886 RMS(Int)=  0.00044842
 Iteration  2 RMS(Cart)=  0.00011357 RMS(Int)=  0.00047131
 Iteration  3 RMS(Cart)=  0.00010009 RMS(Int)=  0.00052498
 Iteration  4 RMS(Cart)=  0.00008820 RMS(Int)=  0.00059147
 Iteration  5 RMS(Cart)=  0.00007771 RMS(Int)=  0.00066053
 Iteration  6 RMS(Cart)=  0.00006848 RMS(Int)=  0.00072720
 Iteration  7 RMS(Cart)=  0.00006033 RMS(Int)=  0.00078932
 Iteration  8 RMS(Cart)=  0.00005315 RMS(Int)=  0.00084609
 Iteration  9 RMS(Cart)=  0.00004683 RMS(Int)=  0.00089739
 Iteration 10 RMS(Cart)=  0.00004125 RMS(Int)=  0.00094341
 Iteration 11 RMS(Cart)=  0.00003634 RMS(Int)=  0.00098451
 Iteration 12 RMS(Cart)=  0.00003201 RMS(Int)=  0.00102110
 Iteration 13 RMS(Cart)=  0.00002820 RMS(Int)=  0.00105359
 Iteration 14 RMS(Cart)=  0.00002484 RMS(Int)=  0.00108239
 Iteration 15 RMS(Cart)=  0.00002188 RMS(Int)=  0.00110790
 Iteration 16 RMS(Cart)=  0.00001928 RMS(Int)=  0.00113046
 Iteration 17 RMS(Cart)=  0.00001698 RMS(Int)=  0.00115041
 Iteration 18 RMS(Cart)=  0.00001496 RMS(Int)=  0.00116803
 Iteration 19 RMS(Cart)=  0.00001317 RMS(Int)=  0.00118359
 Iteration 20 RMS(Cart)=  0.00001160 RMS(Int)=  0.00119732
 Iteration 21 RMS(Cart)=  0.00001022 RMS(Int)=  0.00120944
 Iteration 22 RMS(Cart)=  0.00000900 RMS(Int)=  0.00122012
 Iteration 23 RMS(Cart)=  0.00000793 RMS(Int)=  0.00122955
 Iteration 24 RMS(Cart)=  0.00000698 RMS(Int)=  0.00123786
 Iteration 25 RMS(Cart)=  0.00000615 RMS(Int)=  0.00124519
 Iteration 26 RMS(Cart)=  0.00000542 RMS(Int)=  0.00125165
 Iteration 27 RMS(Cart)=  0.00000477 RMS(Int)=  0.00125734
 Iteration 28 RMS(Cart)=  0.00000420 RMS(Int)=  0.00126236
 Iteration 29 RMS(Cart)=  0.00000370 RMS(Int)=  0.00126678
 Iteration 30 RMS(Cart)=  0.00000326 RMS(Int)=  0.00127068
 Iteration 31 RMS(Cart)=  0.00000287 RMS(Int)=  0.00127411
 Iteration 32 RMS(Cart)=  0.00000253 RMS(Int)=  0.00127714
 Iteration 33 RMS(Cart)=  0.00000223 RMS(Int)=  0.00127980
 Iteration 34 RMS(Cart)=  0.00000196 RMS(Int)=  0.00128215
 Iteration 35 RMS(Cart)=  0.00000173 RMS(Int)=  0.00128422
 Iteration 36 RMS(Cart)=  0.00000152 RMS(Int)=  0.00128604
 Iteration 37 RMS(Cart)=  0.00000134 RMS(Int)=  0.00128765
 Iteration 38 RMS(Cart)=  0.00000118 RMS(Int)=  0.00128906
 Iteration 39 RMS(Cart)=  0.00000104 RMS(Int)=  0.00129031
 Iteration 40 RMS(Cart)=  0.00000092 RMS(Int)=  0.00129141
 GradGradGradGradGradGradGradGradGradGradGradGradGradGradGradGradGradGrad

 Leave Link  103 at Mon Sep  5 10:35:44 2022, MaxMem=   262144000 cpu:               0.0 elap:               0.0
 (Enter /binaries/g16/l202.exe)
                          Input orientation:                          
 ---------------------------------------------------------------------
 Center     Atomic      Atomic             Coordinates (Angstroms)
 Number     Number       Type             X           Y           Z
 ---------------------------------------------------------------------
      1          6           0        4.291819    3.658415   -0.001763
      2          1           0        4.662197    2.611625   -0.000636
      3          1           0        4.663967    4.184165    0.905584
      4          1           0        4.660967    4.181091   -0.910874
      5          1           0        3.180150    3.658704   -0.001311
 ---------------------------------------------------------------------
                    Distance matrix (angstroms):
                    1          2          3          4          5
     1  C    0.000000
     2  H    1.110383   0.000000
     3  H    1.112738   1.814970   0.000000
     4  H    1.111730   1.814321   1.816463   0.000000
     5  H    1.111669   1.814617   1.816668   1.814665   0.000000
 Stoichiometry    CH4
 Framework group  C1[X(CH4)]
 Deg. of freedom     9
 Full point group                 C1      NOp   1
 RotChk:  IX=2 Diff= 1.36D+00
 Largest Abelian subgroup         C1      NOp   1
 Largest concise Abelian subgroup C1      NOp   1
                         Standard orientation:                         
 ---------------------------------------------------------------------
 Center     Atomic      Atomic             Coordinates (Angstroms)
 Number     Number       Type             X           Y           Z
 ---------------------------------------------------------------------
      1          6           0        0.000014    0.000029   -0.000191
      2          1           0       -0.034542   -0.210071   -1.089968
      3          1           0       -1.035952    0.125750    0.386013
      4          1           0        0.491381   -0.847605    0.525184
      5          1           0        0.579028    0.931754    0.179915
 ---------------------------------------------------------------------
 Rotational constants (GHZ):         152.3361967         152.1246712         152.0638255
 Leave Link  202 at Mon Sep  5 10:35:44 2022, MaxMem=   262144000 cpu:               0.0 elap:               0.0
 (Enter /binaries/g16/l301.exe)
 Standard basis: VSTO-6G (5D, 7F)
 Ernie: Thresh=  0.10000D-02 Tol=  0.10000D-05 Strict=F.
  NNHCO=     0 NNPyr=     0 NCTC=     0               EPep=         0.000000000
    EC=         6.784213897  ECS=         0.509779775   EG=         0.066566303
   EHC=         0.000000000  EAt=        -6.115142680  AtH=         0.604449838
 EPDDG=         0.000000000  ECC=         7.360559974 EAtT=         6.719592518
 There are     8 symmetry adapted cartesian basis functions of A   symmetry.
 There are     8 symmetry adapted basis functions of A   symmetry.
     8 basis functions,    48 primitive gaussians,     8 cartesian basis functions
     4 alpha electrons        4 beta electrons
       nuclear repulsion energy        14.0801524926 Hartrees.
 IExCor=    0 DFT=F Ex=HF Corr=None ExCW=0 ScaHFX=  1.000000
 ScaDFX=  1.000000  1.000000  1.000000  1.000000 ScalE2=  1.000000  1.000000
 IRadAn=      5 IRanWt=     -1 IRanGd=            0 ICorTp=0 IEmpDi=  4
 Integral buffers will be    131072 words long.
 Regular integral format.
 Two-electron integral symmetry is turned off.
 Leave Link  301 at Mon Sep  5 10:35:44 2022, MaxMem=   262144000 cpu:               0.0 elap:               0.0
 (Enter /binaries/g16/l302.exe)
 Do NDO integrals.
 NPDir=0 NMtPBC=     1 NCelOv=     1 NCel=       1 NClECP=     1 NCelD=      1
         NCelK=      1 NCelE2=     1 NClLst=     1 CellRange=     0.0.
 One-electron integrals computed using PRISM.
 NBasis=     8 RedAO= F EigKep=  0.00D+00  NBF=     8
 NBsUse=     8 1.00D-04 EigRej=  0.00D+00 NBFU=     8
 Leave Link  302 at Mon Sep  5 10:35:44 2022, MaxMem=   262144000 cpu:               0.0 elap:               0.0
 (Enter /binaries/g16/l303.exe)
 DipDrv:  MaxL=1.
 Leave Link  303 at Mon Sep  5 10:35:44 2022, MaxMem=   262144000 cpu:               0.0 elap:               0.0
 (Enter /binaries/g16/l401.exe)
 Initial guess from the checkpoint file:  "in.chk"
 B after Tr=     0.000000    0.000000    0.000000
         Rot=    0.876943   -0.033635   -0.447164    0.172867 Ang= -57.45 deg.
 Guess basis will be translated and rotated to current coordinates.
 JPrj=0 DoOrth=T DoCkMO=T.
 Leave Link  401 at Mon Sep  5 10:35:44 2022, MaxMem=   262144000 cpu:               0.0 elap:               0.0
 (Enter /binaries/g16/l502.exe)
 Keep J ints in memory in canonical form, NReq=859348.
 FoFCou: FMM=F IPFlag=           0 FMFlag=           0 FMFlg1=           0
         NFxFlg=           0 DoJE=F BraDBF=F KetDBF=F FulRan=T
         wScrn=  0.000000 ICntrl=       600 IOpCl=  2 I1Cent=           0 NGrid=           0
         NMat0=    1 NMatS0=     14 NMatT0=    0 NMatD0=    1 NMtDS0=    0 NMtDT0=    0
 Symmetry not used in FoFCou.
 Two-electron integral symmetry not used.
 Closed shell SCF:
 Using DIIS extrapolation, IDIIS=  1040.
 Overlap will be assumed to be unity.
 NGot=   262144000 LenX=   262083483 LenY=   262082601
 Requested convergence on RMS density matrix=1.00D-08 within 128 cycles.
 Requested convergence on MAX density matrix=1.00D-06.
 Requested convergence on             energy=1.00D-06.
 No special actions if energy rises.

 Cycle   1  Pass 1  IDiag  1:
 E=-0.140223226936200E-01
 DIIS: error= 8.72D-05 at cycle   1 NSaved=   1.
 NSaved= 1 IEnMin= 1 EnMin=-0.140223226936200E-01 IErMin= 1 ErrMin= 8.72D-05
 ErrMax= 8.72D-05  0.00D+00 EMaxC= 1.00D-01 BMatC= 1.22D-07 BMatP= 1.22D-07
 IDIUse=1 WtCom= 1.00D+00 WtEn= 0.00D+00
 Coeff-Com:  0.100D+01
 Coeff:      0.100D+01
 RMSDP=5.99D-05 MaxDP=1.84D-04              OVMax= 0.00D+00

 Cycle   2  Pass 1  IDiag  3:
 E=-0.140226145054392E-01 Delta-E=       -0.000000291812 Rises=F Damp=F
 DIIS: error= 2.50D-05 at cycle   2 NSaved=   2.
 NSaved= 2 IEnMin= 2 EnMin=-0.140226145054392E-01 IErMin= 2 ErrMin= 2.50D-05
 ErrMax= 2.50D-05  0.00D+00 EMaxC= 1.00D-01 BMatC= 8.85D-09 BMatP= 1.22D-07
 IDIUse=1 WtCom= 1.00D+00 WtEn= 0.00D+00
 Coeff-Com: -0.340D+00 0.134D+01
 Coeff:     -0.340D+00 0.134D+01
 Gap=     0.660 Goal=   None    Shift=    0.000
 RMSDP=2.52D-05 MaxDP=7.36D-05 DE=-2.92D-07 OVMax= 0.00D+00

 Cycle   3  Pass 1  IDiag  3:
 E=-0.140226427503052E-01 Delta-E=       -0.000000028245 Rises=F Damp=F
 DIIS: error= 3.29D-06 at cycle   3 NSaved=   3.
 NSaved= 3 IEnMin= 3 EnMin=-0.140226427503052E-01 IErMin= 3 ErrMin= 3.29D-06
 ErrMax= 3.29D-06  0.00D+00 EMaxC= 1.00D-01 BMatC= 1.76D-10 BMatP= 8.85D-09
 IDIUse=1 WtCom= 1.00D+00 WtEn= 0.00D+00
 Coeff-Com:  0.215D+00-0.880D+00 0.167D+01
 Coeff:      0.215D+00-0.880D+00 0.167D+01
 Gap=     0.660 Goal=   None    Shift=    0.000
 RMSDP=5.85D-06 MaxDP=1.44D-05 DE=-2.82D-08 OVMax= 2.54D-05

 Cycle   4  Pass 1  IDiag  3:
 E=-0.140226436454807E-01 Delta-E=       -0.000000000895 Rises=F Damp=F
 DIIS: error= 4.05D-07 at cycle   4 NSaved=   4.
 NSaved= 4 IEnMin= 4 EnMin=-0.140226436454807E-01 IErMin= 4 ErrMin= 4.05D-07
 ErrMax= 4.05D-07  0.00D+00 EMaxC= 1.00D-01 BMatC= 1.36D-12 BMatP= 1.76D-10
 IDIUse=1 WtCom= 1.00D+00 WtEn= 0.00D+00
 Coeff-Com: -0.157D+00 0.643D+00-0.124D+01 0.175D+01
 Coeff:     -0.157D+00 0.643D+00-0.124D+01 0.175D+01
 Gap=     0.660 Goal=   None    Shift=    0.000
 RMSDP=5.38D-07 MaxDP=2.37D-06 DE=-8.95D-10 OVMax= 0.00D+00

 Cycle   5  Pass 1  IDiag  3:
 E=-0.140226436525257E-01 Delta-E=       -0.000000000007 Rises=F Damp=F
 DIIS: error= 1.36D-08 at cycle   5 NSaved=   5.
 NSaved= 5 IEnMin= 5 EnMin=-0.140226436525257E-01 IErMin= 5 ErrMin= 1.36D-08
 ErrMax= 1.36D-08  0.00D+00 EMaxC= 1.00D-01 BMatC= 4.55D-15 BMatP= 1.36D-12
 IDIUse=1 WtCom= 1.00D+00 WtEn= 0.00D+00
 Coeff-Com:  0.976D-01-0.400D+00 0.770D+00-0.109D+01 0.163D+01
 Coeff:      0.976D-01-0.400D+00 0.770D+00-0.109D+01 0.163D+01
 Gap=     0.660 Goal=   None    Shift=    0.000
 RMSDP=2.90D-08 MaxDP=6.22D-08 DE=-7.05D-12 OVMax= 1.36D-07

 Cycle   6  Pass 1  IDiag  3:
 E=-0.140226436525435E-01 Delta-E=       -0.000000000000 Rises=F Damp=F
 DIIS: error= 1.72D-09 at cycle   6 NSaved=   6.
 NSaved= 6 IEnMin= 6 EnMin=-0.140226436525435E-01 IErMin= 6 ErrMin= 1.72D-09
 ErrMax= 1.72D-09  0.00D+00 EMaxC= 1.00D-01 BMatC= 5.88D-17 BMatP= 4.55D-15
 IDIUse=1 WtCom= 1.00D+00 WtEn= 0.00D+00
 Coeff-Com: -0.393D-01 0.161D+00-0.310D+00 0.440D+00-0.699D+00 0.145D+01
 Coeff:     -0.393D-01 0.161D+00-0.310D+00 0.440D+00-0.699D+00 0.145D+01
 Gap=     0.660 Goal=   None    Shift=    0.000
 RMSDP=2.97D-09 MaxDP=7.97D-09 DE=-1.78D-14 OVMax= 0.00D+00

 SCF Done:  E(RAM1) = -0.140226436525E-01 A.U. after    6 cycles
            NFock=  6  Conv=0.30D-08     -V/T= 0.9986
 KE=-9.877202094057D+00 PE=-1.325370758873D+01 EE= 9.036734546527D+00
 Leave Link  502 at Mon Sep  5 10:35:44 2022, MaxMem=   262144000 cpu:               0.0 elap:               0.0
 (Enter /binaries/g16/l701.exe)
 ... and contract with generalized density number  0.
 Compute integral first derivatives.
 Leave Link  701 at Mon Sep  5 10:35:45 2022, MaxMem=   262144000 cpu:               0.0 elap:               0.0
 (Enter /binaries/g16/l702.exe)
 L702 exits ... SP integral derivatives will be done elsewhere.
 Leave Link  702 at Mon Sep  5 10:35:45 2022, MaxMem=   262144000 cpu:               0.0 elap:               0.0
 (Enter /binaries/g16/l703.exe)
 Integral derivatives from FoFJK, PRISM(SPDF).
 Compute integral first derivatives, UseDBF=F ICtDFT=           0.
 Calling FoFJK, ICntrl=      2127 FMM=F ISym2X=0 I1Cent= 0 IOpClX= 0 NMat=1 NMatS=1 NMatT=0.
 FoFJK:  IHMeth= 8 ICntrl=    2127 DoSepK=F KAlg= 0 I1Cent=           0 FoldK=F
 IRaf=         0 NMat=       1 IRICut=       1 DoRegI=T DoRafI=F ISym2E= 0 IDoP0=3 IntGTp=3.
 FoFCou: FMM=F IPFlag=           0 FMFlag=      100000 FMFlg1=         800
         NFxFlg=           0 DoJE=F BraDBF=F KetDBF=F FulRan=T
         wScrn=  0.000000 ICntrl=      2127 IOpCl=  0 I1Cent=           0 NGrid=           0
         NMat0=    1 NMatS0=      1 NMatT0=    0 NMatD0=    1 NMtDS0=    0 NMtDT0=    0
 Symmetry not used in FoFCou.
 Leave Link  703 at Mon Sep  5 10:35:45 2022, MaxMem=   262144000 cpu:               0.0 elap:               0.0
 (Enter /binaries/g16/l716.exe)
 Dipole        = 4.01268896D-05-3.62216041D-05 3.95365130D-05
 ***** Axes restored to original set *****
 -------------------------------------------------------------------
 Center     Atomic                   Forces (Hartrees/Bohr)
 Number     Number              X              Y              Z
 -------------------------------------------------------------------
      1        6          -0.000025452    0.000992058    0.000377704
      2        1           0.000243050   -0.000752545    0.000019462
      3        1          -0.000293188   -0.000283809   -0.000596875
      4        1           0.000051253    0.000034991    0.000084140
      5        1           0.000024337    0.000009304    0.000115569
 -------------------------------------------------------------------
 Cartesian Forces:  Max     0.000992058 RMS     0.000391663
 Leave Link  716 at Mon Sep  5 10:35:45 2022, MaxMem=   262144000 cpu:               0.0 elap:               0.0
 (Enter /binaries/g16/l103.exe)

 GradGradGradGradGradGradGradGradGradGradGradGradGradGradGradGradGradGrad
 Berny optimization.
 FormGI is forming the generalized inverse of G from B-inverse, IUseBI=4.
 Internal  Forces:  Max     0.000749741 RMS     0.000272569
 Search for a local minimum.
 Step number   1 out of a maximum of   25 on scan point     2 out of  1001
 All quantities printed in internal units (Hartrees-Bohrs-Radians)
 RMS Force = .21097D-03 SwitMx=.10000D-02 MixMth= 1
 Mixed Optimization -- RFO/linear search
 Second derivative matrix not updated -- first step.
 The second derivative matrix:
                          R1        R2        R3        R4        A1
           R1           0.37621
           R2           0.00453   0.38037
           R3           0.00389   0.00471   0.36977
           R4           0.00458   0.00518   0.00462   0.37756
           A1          -0.00041  -0.00043  -0.00039  -0.00042   0.16000
           A2           0.00248   0.00240   0.00267   0.00249  -0.00001
           A3          -0.00094  -0.00091  -0.00100  -0.00094   0.00000
           A4          -0.00029  -0.00024  -0.00037  -0.00029   0.00001
           A5          -0.00219  -0.00210  -0.00237  -0.00219   0.00001
[...]
 FoFJK:  IHMeth= 8 ICntrl=    2127 DoSepK=F KAlg= 0 I1Cent=           0 FoldK=F
 IRaf=         0 NMat=       1 IRICut=       1 DoRegI=T DoRafI=F ISym2E= 0 IDoP0=3 IntGTp=3.
 FoFCou: FMM=F IPFlag=           0 FMFlag=      100000 FMFlg1=         800
         NFxFlg=           0 DoJE=F BraDBF=F KetDBF=F FulRan=T
         wScrn=  0.000000 ICntrl=      2127 IOpCl=  0 I1Cent=           0 NGrid=           0
         NMat0=    1 NMatS0=      1 NMatT0=    0 NMatD0=    1 NMtDS0=    0 NMtDT0=    0
 Symmetry not used in FoFCou.
 Leave Link  703 at Mon Sep  5 10:35:50 2022, MaxMem=   262144000 cpu:               0.0 elap:               0.0
 (Enter /binaries/g16/l716.exe)
 Dipole        =-4.22249054D-03-6.22233913D-06 7.03402990D-05
 ***** Axes restored to original set *****
 -------------------------------------------------------------------
 Center     Atomic                   Forces (Hartrees/Bohr)
 Number     Number              X              Y              Z
 -------------------------------------------------------------------
      1        6           0.003848689    0.002638866    0.007715454
      2        1          -0.000593550   -0.004586906   -0.003566810
      3        1          -0.003337840    0.001892332   -0.004309713
      4        1           0.000051664    0.000039519    0.000059794
      5        1           0.000031037    0.000016190    0.000101275
 -------------------------------------------------------------------
 Cartesian Forces:  Max     0.007715454 RMS     0.003148898
 Leave Link  716 at Mon Sep  5 10:35:50 2022, MaxMem=   262144000 cpu:               0.0 elap:               0.0
 (Enter /binaries/g16/l103.exe)

 GradGradGradGradGradGradGradGradGradGradGradGradGradGradGradGradGradGrad
 Berny optimization.
 FormGI is forming the generalized inverse of G from B-inverse, IUseBI=4.
 Internal  Forces:  Max     0.003547204 RMS     0.001813056
 Search for a local minimum.
 Step number   1 out of a maximum of   25 on scan point    18 out of  1001
 All quantities printed in internal units (Hartrees-Bohrs-Radians)
 RMS Force = .20665D-03 SwitMx=.10000D-02 MixMth= 1
 Mixed Optimization -- RFO/linear search
 Second derivative matrix not updated -- first step.
 The second derivative matrix:
                          R1        R2        R3        R4        A1
           R1           0.33558
           R2           0.02763   0.37111
           R3           0.01551  -0.00487   0.36872
           R4           0.01263  -0.00116   0.00367   0.37676
           A1           0.03384  -0.02811  -0.00389  -0.00347   0.14854
           A2          -0.00545   0.00845   0.00375   0.00333   0.00357
           A3           0.00675  -0.00826  -0.00092  -0.00112  -0.00008
           A4          -0.00571   0.00479  -0.00031  -0.00008   0.00028
           A5          -0.00431   0.00082  -0.00308  -0.00253  -0.00194
           A6          -0.02474   0.02197   0.00444   0.00385   0.00956
           A7          -0.03880   0.03617   0.00086   0.00177   0.00391
           D1           0.01704  -0.01394   0.00081   0.00039  -0.00139
           D2          -0.01657   0.01718   0.00106   0.00154   0.00141
           D3          -0.01744   0.01839   0.00136   0.00179   0.00159
           D4          -0.00087   0.00121   0.00030   0.00026   0.00019
                          A2        A3        A4        A5        A6
           A2           0.15849
           A3           0.00015   0.16068
           A4           0.00008  -0.00033   0.16003
           A5           0.00068  -0.00086   0.00036   0.16034
           A6          -0.00296   0.00045  -0.00042   0.00140   0.15203
           A7          -0.00242  -0.00327   0.00193   0.00416  -0.00435
           D1           0.00094   0.00142  -0.00083  -0.00173   0.00161
           D2          -0.00102  -0.00159   0.00094   0.00193  -0.00171
           D3          -0.00120  -0.00173   0.00107   0.00213  -0.00189
           D4          -0.00019  -0.00014   0.00012   0.00020  -0.00018
                          A7        D1        D2        D3        D4
           A7           0.17083
           D1          -0.00483   0.00650
           D2           0.00542  -0.00239   0.00769
           D3           0.00559  -0.00247   0.00279   0.00789
           D4           0.00018  -0.00008   0.00010   0.00011   0.00501
 ITU=  0
     Eigenvalues ---    0.05806   0.08494   0.12173   0.16049   0.23519
     Eigenvalues ---    0.36682   0.37200   0.390491000.000001000.00000
     Eigenvalues --- 1000.000001000.000001000.000001000.000001000.00000
 RFO step:  Lambda=-3.14105054D-06 EMin= 5.80569165D-02
 Linear search not attempted -- first point.
 Iteration  1 RMS(Cart)=  0.00079868 RMS(Int)=  0.00000055
 Iteration  2 RMS(Cart)=  0.00000038 RMS(Int)=  0.00000033
 Iteration  1 RMS(Cart)=  0.00000088 RMS(Int)=  0.00000296
 ITry= 1 IFail=0 DXMaxC= 1.45D-03 DCOld= 1.00D+10 DXMaxT= 5.05D-01 DXLimC= 3.00D+00 Rises=F
 Variable       Old X    -DE/DX   Delta X   Delta X   Delta X     New X
                                 (Linear)    (Quad)   (Total)
    R1        2.09157   0.00355   0.00000   0.00219   0.00219   2.09376
    R2        2.11593  -0.00342   0.00000  -0.00174  -0.00173   2.11419
    R3        2.09788  -0.00001   0.00000  -0.00018  -0.00018   2.09771
    R4        2.09788  -0.00003   0.00000  -0.00018  -0.00018   2.09771
    A1        1.85052   0.00242   0.00000  -0.00139  -0.00140   1.84912
    A2        1.92573  -0.00062   0.00000   0.00033   0.00033   1.92606
    A3        1.92604  -0.00093   0.00000   0.00003   0.00003   1.92607
    A4        1.92169  -0.00066   0.00000   0.00005   0.00005   1.92174
    A5        1.92201  -0.00103   0.00000  -0.00025  -0.00025   1.92176
    A6        1.91701   0.00083   0.00000   0.00115   0.00115   1.91815
    A7        0.64990  -0.00247   0.00000   0.00000   0.00000   0.64990
    D1       -2.03668  -0.00219   0.00000   0.00148   0.00148  -2.03520
    D2        2.03706   0.00179   0.00000  -0.00184  -0.00184   2.03522
    D3       -2.12689   0.00084   0.00000  -0.00119  -0.00119  -2.12809
    D4        2.11923  -0.00095   0.00000   0.00065   0.00065   2.11988
         Item               Value     Threshold  Converged?
 Maximum Force            0.000441     0.000450     YES
 RMS     Force            0.000207     0.000300     YES
 Maximum Displacement     0.001448     0.001800     YES
 RMS     Displacement     0.000798     0.001200     YES
 Predicted change in Energy=-1.542638D-06
 Optimization completed.
    -- Stationary point found.
                           ----------------------------
                           !   Optimized Parameters   !
                           ! (Angstroms and Degrees)  !
 --------------------------                            --------------------------
 ! Name  Definition              Value          Derivative Info.                !
 --------------------------------------------------------------------------------
 ! R1    R(1,2)                  1.1068         -DE/DX =    0.0035              !
 ! R2    R(1,3)                  1.1197         -DE/DX =   -0.0034              !
 ! R3    R(1,4)                  1.1102         -DE/DX =    0.0                 !
 ! R4    R(1,5)                  1.1102         -DE/DX =    0.0                 !
 ! A1    A(2,1,3)              106.027          -DE/DX =    0.0024              !
 ! A2    A(2,1,4)              110.336          -DE/DX =   -0.0006              !
 ! A3    A(2,1,5)              110.3539         -DE/DX =   -0.0009              !
 ! A4    A(3,1,4)              110.1047         -DE/DX =   -0.0007              !
 ! A5    A(3,1,5)              110.1232         -DE/DX =   -0.001               !
 ! A6    A(4,1,5)              109.8363         -DE/DX =    0.0008              !
 ! A7    A(1,2,3)               37.2363         -DE/DX =   -0.0025              !
 ! D1    D(2,1,4,3)           -116.6932         -DE/DX =   -0.0022              !
 ! D2    D(2,1,5,3)            116.715          -DE/DX =    0.0018              !
 ! D3    D(2,1,5,4)           -121.8621         -DE/DX =    0.0008              !
 ! D4    D(3,1,5,4)            121.423          -DE/DX =   -0.0009              !
 --------------------------------------------------------------------------------
 Lowest energy point so far.  Saving SCF results.
 Iteration  1 RMS(Cart)=  0.00015117 RMS(Int)=  0.00050856
 Iteration  2 RMS(Cart)=  0.00000005 RMS(Int)=  0.00050856
 Iteration  1 RMS(Cart)=  0.00013223 RMS(Int)=  0.00044469
 Iteration  2 RMS(Cart)=  0.00011570 RMS(Int)=  0.00046841
 Iteration  3 RMS(Cart)=  0.00010122 RMS(Int)=  0.00052334
 Iteration  4 RMS(Cart)=  0.00008855 RMS(Int)=  0.00059055
 Iteration  5 RMS(Cart)=  0.00007746 RMS(Int)=  0.00065958
 Iteration  6 RMS(Cart)=  0.00006776 RMS(Int)=  0.00072557
 Iteration  7 RMS(Cart)=  0.00005927 RMS(Int)=  0.00078651
 Iteration  8 RMS(Cart)=  0.00005184 RMS(Int)=  0.00084173
 Iteration  9 RMS(Cart)=  0.00004534 RMS(Int)=  0.00089122
 Iteration 10 RMS(Cart)=  0.00003965 RMS(Int)=  0.00093527
 Iteration 11 RMS(Cart)=  0.00003468 RMS(Int)=  0.00097430
 Iteration 12 RMS(Cart)=  0.00003033 RMS(Int)=  0.00100878
 Iteration 13 RMS(Cart)=  0.00002652 RMS(Int)=  0.00103917
 Iteration 14 RMS(Cart)=  0.00002319 RMS(Int)=  0.00106591
 Iteration 15 RMS(Cart)=  0.00002028 RMS(Int)=  0.00108941
 Iteration 16 RMS(Cart)=  0.00001774 RMS(Int)=  0.00111004
 Iteration 17 RMS(Cart)=  0.00001551 RMS(Int)=  0.00112815
 Iteration 18 RMS(Cart)=  0.00001356 RMS(Int)=  0.00114402
 Iteration 19 RMS(Cart)=  0.00001186 RMS(Int)=  0.00115794
 Iteration 20 RMS(Cart)=  0.00001037 RMS(Int)=  0.00117013
 Iteration 21 RMS(Cart)=  0.00000907 RMS(Int)=  0.00118080
 Iteration 22 RMS(Cart)=  0.00000793 RMS(Int)=  0.00119015
 Iteration 23 RMS(Cart)=  0.00000693 RMS(Int)=  0.00119834
 Iteration 24 RMS(Cart)=  0.00000606 RMS(Int)=  0.00120550
 Iteration 25 RMS(Cart)=  0.00000530 RMS(Int)=  0.00121177
 Iteration 26 RMS(Cart)=  0.00000464 RMS(Int)=  0.00121726
 Iteration 27 RMS(Cart)=  0.00000405 RMS(Int)=  0.00122206
 Iteration 28 RMS(Cart)=  0.00000354 RMS(Int)=  0.00122626
 Iteration 29 RMS(Cart)=  0.00000310 RMS(Int)=  0.00122994
 Iteration 30 RMS(Cart)=  0.00000271 RMS(Int)=  0.00123315
 Iteration 31 RMS(Cart)=  0.00000237 RMS(Int)=  0.00123596
 Iteration 32 RMS(Cart)=  0.00000207 RMS(Int)=  0.00123842
 Iteration 33 RMS(Cart)=  0.00000181 RMS(Int)=  0.00124057
 Iteration 34 RMS(Cart)=  0.00000158 RMS(Int)=  0.00124245
 Iteration 35 RMS(Cart)=  0.00000139 RMS(Int)=  0.00124410
 Iteration 36 RMS(Cart)=  0.00000121 RMS(Int)=  0.00124554
 Iteration 37 RMS(Cart)=  0.00000106 RMS(Int)=  0.00124679
 Iteration 38 RMS(Cart)=  0.00000093 RMS(Int)=  0.00124789
 GradGradGradGradGradGradGradGradGradGradGradGradGradGradGradGradGradGrad

 Leave Link  103 at Mon Sep  5 10:35:50 2022, MaxMem=   262144000 cpu:               0.0 elap:               0.0
 (Enter /binaries/g16/l202.exe)
                          Input orientation:                          
 ---------------------------------------------------------------------
 Center     Atomic      Atomic             Coordinates (Angstroms)
 Number     Number       Type             X           Y           Z
 ---------------------------------------------------------------------
      1          6           0        4.283967    3.661394   -0.012934
      2          1           0        4.670061    2.624877    0.019878
      3          1           0        4.674459    4.161997    0.909929
      4          1           0        4.656691    4.184437   -0.918324
      5          1           0        3.173922    3.661295   -0.007549
 ---------------------------------------------------------------------
                    Distance matrix (angstroms):
                    1          2          3          4          5
     1  C    0.000000
     2  H    1.106577   0.000000
     3  H    1.120162   1.776218   0.000000
     4  H    1.110059   1.820064   1.828477   0.000000
     5  H    1.110058   1.820260   1.828683   1.817084   0.000000
 Stoichiometry    CH4
 Framework group  C1[X(CH4)]
 Deg. of freedom     9
 Full point group                 C1      NOp   1
 RotChk:  IX=1 Diff= 1.06D-03
 Largest Abelian subgroup         C1      NOp   1
 Largest concise Abelian subgroup C1      NOp   1
                         Standard orientation:                         
 ---------------------------------------------------------------------
 Center     Atomic      Atomic             Coordinates (Angstroms)
 Number     Number       Type             X           Y           Z
 ---------------------------------------------------------------------
      1          6           0        0.006845    0.000012   -0.001113
      2          1           0       -0.589368    0.002155   -0.933336
      3          1           0       -0.736598    0.003008    0.836769
      4          1           0        0.638680   -0.911152    0.051753
      5          1           0        0.646218    0.905916    0.051494
 ---------------------------------------------------------------------
 Rotational constants (GHZ):         155.3677295         152.3005157         148.9414859
 Leave Link  202 at Mon Sep  5 10:35:50 2022, MaxMem=   262144000 cpu:               0.0 elap:               0.0
 (Enter /binaries/g16/l301.exe)
 Standard basis: VSTO-6G (5D, 7F)
 Ernie: Thresh=  0.10000D-02 Tol=  0.10000D-05 Strict=F.
  NNHCO=     0 NNPyr=     0 NCTC=     0               EPep=         0.000000000
    EC=         6.784184152  ECS=         0.509746411   EG=         0.066592189
   EHC=         0.000000000  EAt=        -6.115142680  AtH=         0.604449838
 EPDDG=         0.000000000  ECC=         7.360522752 EAtT=         6.719592518
 There are     8 symmetry adapted cartesian basis functions of A   symmetry.
 There are     8 symmetry adapted basis functions of A   symmetry.
     8 basis functions,    48 primitive gaussians,     8 cartesian basis functions
     4 alpha electrons        4 beta electrons
       nuclear repulsion energy        14.0801152706 Hartrees.
 IExCor=    0 DFT=F Ex=HF Corr=None ExCW=0 ScaHFX=  1.000000
 ScaDFX=  1.000000  1.000000  1.000000  1.000000 ScalE2=  1.000000  1.000000
 IRadAn=      5 IRanWt=     -1 IRanGd=            0 ICorTp=0 IEmpDi=  4
 Integral buffers will be    131072 words long.
 Regular integral format.
 Two-electron integral symmetry is turned off.
 Leave Link  301 at Mon Sep  5 10:35:50 2022, MaxMem=   262144000 cpu:               0.0 elap:               0.0
 (Enter /binaries/g16/l302.exe)
 Do NDO integrals.
 NPDir=0 NMtPBC=     1 NCelOv=     1 NCel=       1 NClECP=     1 NCelD=      1
         NCelK=      1 NCelE2=     1 NClLst=     1 CellRange=     0.0.
 One-electron integrals computed using PRISM.
 NBasis=     8 RedAO= F EigKep=  0.00D+00  NBF=     8
 NBsUse=     8 1.00D-04 EigRej=  0.00D+00 NBFU=     8
 Leave Link  302 at Mon Sep  5 10:35:50 2022, MaxMem=   262144000 cpu:               0.0 elap:               0.0
 (Enter /binaries/g16/l303.exe)
 DipDrv:  MaxL=1.
 Leave Link  303 at Mon Sep  5 10:35:50 2022, MaxMem=   262144000 cpu:               0.0 elap:               0.0
 (Enter /binaries/g16/l401.exe)
 Initial guess from the checkpoint file:  "in.chk"
 B after Tr=     0.000000    0.000000   -0.000000
         Rot=    1.000000   -0.000013   -0.000354   -0.000120 Ang=  -0.04 deg.
 Guess basis will be translated and rotated to current coordinates.
 JPrj=0 DoOrth=T DoCkMO=T.
 Leave Link  401 at Mon Sep  5 10:35:50 2022, MaxMem=   262144000 cpu:               0.1 elap:               0.0
 (Enter /binaries/g16/l502.exe)
 Keep J ints in memory in canonical form, NReq=859348.
 FoFCou: FMM=F IPFlag=           0 FMFlag=           0 FMFlg1=           0
         NFxFlg=           0 DoJE=F BraDBF=F KetDBF=F FulRan=T
         wScrn=  0.000000 ICntrl=       600 IOpCl=  2 I1Cent=           0 NGrid=           0
         NMat0=    1 NMatS0=     14 NMatT0=    0 NMatD0=    1 NMtDS0=    0 NMtDT0=    0
 Symmetry not used in FoFCou.
 Two-electron integral symmetry not used.
 Closed shell SCF:
 Using DIIS extrapolation, IDIIS=  1040.
 Overlap will be assumed to be unity.
 NGot=   262144000 LenX=   262083483 LenY=   262082601
 Requested convergence on RMS density matrix=1.00D-08 within 128 cycles.
 Requested convergence on MAX density matrix=1.00D-06.
 Requested convergence on             energy=1.00D-06.
 No special actions if energy rises.

 Cycle   1  Pass 1  IDiag  1:
 E=-0.136687613908570E-01
 DIIS: error= 7.42D-05 at cycle   1 NSaved=   1.
 NSaved= 1 IEnMin= 1 EnMin=-0.136687613908570E-01 IErMin= 1 ErrMin= 7.42D-05
 ErrMax= 7.42D-05  0.00D+00 EMaxC= 1.00D-01 BMatC= 6.44D-08 BMatP= 6.44D-08
 IDIUse=1 WtCom= 1.00D+00 WtEn= 0.00D+00
 Coeff-Com:  0.100D+01
 Coeff:      0.100D+01
 RMSDP=5.89D-05 MaxDP=1.31D-04              OVMax= 0.00D+00

 Cycle   2  Pass 1  IDiag  3:
 E=-0.136689876283498E-01 Delta-E=       -0.000000226237 Rises=F Damp=F
 DIIS: error= 2.46D-05 at cycle   2 NSaved=   2.
 NSaved= 2 IEnMin= 2 EnMin=-0.136689876283498E-01 IErMin= 2 ErrMin= 2.46D-05
 ErrMax= 2.46D-05  0.00D+00 EMaxC= 1.00D-01 BMatC= 8.63D-09 BMatP= 6.44D-08
 IDIUse=1 WtCom= 1.00D+00 WtEn= 0.00D+00
 Coeff-Com: -0.523D+00 0.152D+01
 Coeff:     -0.523D+00 0.152D+01
 Gap=     0.651 Goal=   None    Shift=    0.000
 RMSDP=3.54D-05 MaxDP=8.53D-05 DE=-2.26D-07 OVMax= 1.74D-04

 Cycle   3  Pass 1  IDiag  3:
 E=-0.136690277010079E-01 Delta-E=       -0.000000040073 Rises=F Damp=F
 DIIS: error= 2.88D-06 at cycle   3 NSaved=   3.
 NSaved= 3 IEnMin= 3 EnMin=-0.136690277010079E-01 IErMin= 3 ErrMin= 2.88D-06
 ErrMax= 2.88D-06  0.00D+00 EMaxC= 1.00D-01 BMatC= 1.58D-10 BMatP= 8.63D-09
 IDIUse=1 WtCom= 1.00D+00 WtEn= 0.00D+00
 Coeff-Com:  0.248D+00-0.772D+00 0.152D+01
 Coeff:      0.248D+00-0.772D+00 0.152D+01
 Gap=     0.651 Goal=   None    Shift=    0.000
 RMSDP=4.90D-06 MaxDP=1.47D-05 DE=-4.01D-08 OVMax= 2.41D-05

 Cycle   4  Pass 1  IDiag  3:
 E=-0.136690284059267E-01 Delta-E=       -0.000000000705 Rises=F Damp=F
 DIIS: error= 3.81D-07 at cycle   4 NSaved=   4.
 NSaved= 4 IEnMin= 4 EnMin=-0.136690284059267E-01 IErMin= 4 ErrMin= 3.81D-07
 ErrMax= 3.81D-07  0.00D+00 EMaxC= 1.00D-01 BMatC= 2.38D-12 BMatP= 1.58D-10
 IDIUse=1 WtCom= 1.00D+00 WtEn= 0.00D+00
 Coeff-Com: -0.156D+00 0.489D+00-0.101D+01 0.168D+01
 Coeff:     -0.156D+00 0.489D+00-0.101D+01 0.168D+01
 Gap=     0.651 Goal=   None    Shift=    0.000
 RMSDP=7.11D-07 MaxDP=2.52D-06 DE=-7.05D-10 OVMax= 0.00D+00

 Cycle   5  Pass 1  IDiag  3:
 E=-0.136690284183203E-01 Delta-E=       -0.000000000012 Rises=F Damp=F
 DIIS: error= 1.89D-08 at cycle   5 NSaved=   5.
 NSaved= 5 IEnMin= 5 EnMin=-0.136690284183203E-01 IErMin= 5 ErrMin= 1.89D-08
 ErrMax= 1.89D-08  0.00D+00 EMaxC= 1.00D-01 BMatC= 5.03D-15 BMatP= 2.38D-12
 IDIUse=1 WtCom= 1.00D+00 WtEn= 0.00D+00
 Coeff-Com:  0.861D-01-0.269D+00 0.559D+00-0.930D+00 0.155D+01
 Coeff:      0.861D-01-0.269D+00 0.559D+00-0.930D+00 0.155D+01
 Gap=     0.651 Goal=   None    Shift=    0.000
 RMSDP=2.80D-08 MaxDP=9.62D-08 DE=-1.24D-11 OVMax= 0.00D+00

 Cycle   6  Pass 1  IDiag  3:
 E=-0.136690284183594E-01 Delta-E=       -0.000000000000 Rises=F Damp=F
 DIIS: error= 1.96D-09 at cycle   6 NSaved=   6.
 NSaved= 6 IEnMin= 6 EnMin=-0.136690284183594E-01 IErMin= 6 ErrMin= 1.96D-09
 ErrMax= 1.96D-09  0.00D+00 EMaxC= 1.00D-01 BMatC= 8.27D-17 BMatP= 5.03D-15
 IDIUse=1 WtCom= 1.00D+00 WtEn= 0.00D+00
 Coeff-Com: -0.395D-01 0.123D+00-0.256D+00 0.426D+00-0.763D+00 0.151D+01
 Coeff:     -0.395D-01 0.123D+00-0.256D+00 0.426D+00-0.763D+00 0.151D+01
 Gap=     0.651 Goal=   None    Shift=    0.000
 RMSDP=3.73D-09 MaxDP=1.03D-08 DE=-3.91D-14 OVMax= 1.39D-08

 Cycle   7  Pass 2  IDiag  1:
 SCF Done:  E(RAM1) = -0.136690284184E-01 A.U. after    7 cycles
            NFock=  6  Conv=0.37D-08     -V/T= 0.9986
 KE=-9.877263643935D+00 PE=-1.325335150635D+01 EE= 9.036830851268D+00
 Leave Link  502 at Mon Sep  5 10:35:50 2022, MaxMem=   262144000 cpu:               0.0 elap:               0.0
 (Enter /binaries/g16/l701.exe)
 ... and contract with generalized density number  0.
 Compute integral first derivatives.
