 Entering Gaussian System, Link 0=g16
 Input=calc.com
 Output=calc.log
 Initial command:
 /binaries/g16/l1.exe "/calcus/scratch/scr/217/Gau-44471.inp" -scrdir="/calcus/scratch/scr/217/"
 Entering Link 1 = /binaries/g16/l1.exe PID=     44473.
  
 Copyright (c) 1988-2019, Gaussian, Inc.  All Rights Reserved.
  
 This is part of the Gaussian(R) 16 program.  It is based on
 the Gaussian(R) 09 system (copyright 2009, Gaussian, Inc.),
 the Gaussian(R) 03 system (copyright 2003, Gaussian, Inc.),
 the Gaussian(R) 98 system (copyright 1998, Gaussian, Inc.),
 the Gaussian(R) 94 system (copyright 1995, Gaussian, Inc.),
 the Gaussian 92(TM) system (copyright 1992, Gaussian, Inc.),
 the Gaussian 90(TM) system (copyright 1990, Gaussian, Inc.),
 the Gaussian 88(TM) system (copyright 1988, Gaussian, Inc.),
 the Gaussian 86(TM) system (copyright 1986, Carnegie Mellon
 University), and the Gaussian 82(TM) system (copyright 1983,
 Carnegie Mellon University). Gaussian is a federally registered
 trademark of Gaussian, Inc.
  
 This software contains proprietary and confidential information,
 including trade secrets, belonging to Gaussian, Inc.
  
 This software is provided under written license and may be
 used, copied, transmitted, or stored only in accord with that
 written license.
  
 The following legend is applicable only to US Government
 contracts under FAR:
  
                    RESTRICTED RIGHTS LEGEND
  
 Use, reproduction and disclosure by the US Government is
 subject to restrictions as set forth in subparagraphs (a)
 and (c) of the Commercial Computer Software - Restricted
 Rights clause in FAR 52.227-19.
  
 Gaussian, Inc.
 340 Quinnipiac St., Bldg. 40, Wallingford CT 06492
  
  
 ---------------------------------------------------------------
 Warning -- This program may not be used in any manner that
 competes with the business of Gaussian, Inc. or will provide
 assistance to any competitor of Gaussian, Inc.  The licensee
 of this program is prohibited from giving any competitor of
 Gaussian, Inc. access to this program.  By using this program,
 the user acknowledges that Gaussian, Inc. is engaged in the
 business of creating and licensing software in the field of
 computational chemistry and represents and warrants to the
 licensee that it is not a competitor of Gaussian, Inc. and that
 it will not use this program in any manner prohibited above.
 ---------------------------------------------------------------
  

 Cite this work as:
 Gaussian 16, Revision C.01,
 M. J. Frisch, G. W. Trucks, H. B. Schlegel, G. E. Scuseria, 
 M. A. Robb, J. R. Cheeseman, G. Scalmani, V. Barone, 
 G. A. Petersson, H. Nakatsuji, X. Li, M. Caricato, A. V. Marenich, 
 J. Bloino, B. G. Janesko, R. Gomperts, B. Mennucci, H. P. Hratchian, 
 J. V. Ortiz, A. F. Izmaylov, J. L. Sonnenberg, D. Williams-Young, 
 F. Ding, F. Lipparini, F. Egidi, J. Goings, B. Peng, A. Petrone, 
 T. Henderson, D. Ranasinghe, V. G. Zakrzewski, J. Gao, N. Rega, 
 G. Zheng, W. Liang, M. Hada, M. Ehara, K. Toyota, R. Fukuda, 
 J. Hasegawa, M. Ishida, T. Nakajima, Y. Honda, O. Kitao, H. Nakai, 
 T. Vreven, K. Throssell, J. A. Montgomery, Jr., J. E. Peralta, 
 F. Ogliaro, M. J. Bearpark, J. J. Heyd, E. N. Brothers, K. N. Kudin, 
 V. N. Staroverov, T. A. Keith, R. Kobayashi, J. Normand, 
 K. Raghavachari, A. P. Rendell, J. C. Burant, S. S. Iyengar, 
 J. Tomasi, M. Cossi, J. M. Millam, M. Klene, C. Adamo, R. Cammi, 
 J. W. Ochterski, R. L. Martin, K. Morokuma, O. Farkas, 
 J. B. Foresman, and D. J. Fox, Gaussian, Inc., Wallingford CT, 2019.
 
 ******************************************
 Gaussian 16:  ES64L-G16RevC.01  3-Jul-2019
                29-May-2022 
 ******************************************
 %chk=in.chk
 %nproc=4
 Will use up to    4 processors via shared memory.
 %mem=2000MB
 --------------------
 #p sp M062X/Def2TZVP
 --------------------
 1/38=1,172=1/1;
 2/12=2,17=6,18=5,40=1/2;
 3/5=44,7=101,11=2,25=1,30=1,74=-55/1,2,3;
 4//1;
 5/5=2,38=5/2;
 6/7=2,8=2,9=2,10=2,28=1/1;
 99/5=1,9=1/99;
 Leave Link    1 at Sun May 29 14:38:08 2022, MaxMem=   262144000 cpu:               0.1 elap:               0.0
 (Enter /binaries/g16/l101.exe)
 -----------------------
 File created by ccinput
 -----------------------
 Symbolic Z-matrix:
 Charge =  0 Multiplicity = 1
 C                     4.2918    3.6588    0. 
 H                     4.6485    2.65      0. 
 H                     4.6485    4.1632    0.8707 
 H                     4.6485    4.1632   -0.8797 
 H                     3.2218    3.6588    0. 
 
 ITRead=  0  0  0  0  0
 MicOpt= -1 -1 -1 -1 -1
 NAtoms=      5 NQM=        5 NQMF=       0 NMMI=      0 NMMIF=      0
                NMic=       0 NMicF=      0.
                    Isotopes and Nuclear Properties:
 (Nuclear quadrupole moments (NQMom) in fm**2, nuclear magnetic moments (NMagM)
  in nuclear magnetons)

  Atom         1           2           3           4           5
 IAtWgt=          12           1           1           1           1
 AtmWgt=  12.0000000   1.0078250   1.0078250   1.0078250   1.0078250
 NucSpn=           0           1           1           1           1
 AtZEff=  -0.0000000  -0.0000000  -0.0000000  -0.0000000  -0.0000000
 NQMom=    0.0000000   0.0000000   0.0000000   0.0000000   0.0000000
 NMagM=    0.0000000   2.7928460   2.7928460   2.7928460   2.7928460
 AtZNuc=   6.0000000   1.0000000   1.0000000   1.0000000   1.0000000
 Leave Link  101 at Sun May 29 14:38:09 2022, MaxMem=   262144000 cpu:               0.4 elap:               0.1
 (Enter /binaries/g16/l202.exe)
                          Input orientation:                          
 ---------------------------------------------------------------------
 Center     Atomic      Atomic             Coordinates (Angstroms)
 Number     Number       Type             X           Y           Z
 ---------------------------------------------------------------------
      1          6           0        4.291800    3.658800    0.000000
      2          1           0        4.648500    2.650000    0.000000
      3          1           0        4.648500    4.163200    0.870700
      4          1           0        4.648500    4.163200   -0.879700
      5          1           0        3.221800    3.658800    0.000000
 ---------------------------------------------------------------------
                    Distance matrix (angstroms):
                    1          2          3          4          5
     1  C    0.000000
     2  H    1.070006   0.000000
     3  H    1.067601   1.745822   0.000000
     4  H    1.074954   1.750327   1.750400   0.000000
     5  H    1.070000   1.747327   1.745855   1.750361   0.000000
 Stoichiometry    CH4
 Framework group  C1[X(CH4)]
 Deg. of freedom     9
 Full point group                 C1      NOp   1
 Largest Abelian subgroup         C1      NOp   1
 Largest concise Abelian subgroup C1      NOp   1
                         Standard orientation:                         
 ---------------------------------------------------------------------
 Center     Atomic      Atomic             Coordinates (Angstroms)
 Number     Number       Type             X           Y           Z
 ---------------------------------------------------------------------
      1          6           0       -0.000767    0.000001    0.000472
      2          1           0       -0.325680   -0.869163   -0.532348
      3          1           0       -0.412253   -0.010991    0.985525
      4          1           0        1.072605    0.002075    0.058743
      5          1           0       -0.330072    0.878070   -0.514750
 ---------------------------------------------------------------------
 Rotational constants (GHZ):         164.4303219         163.9529333         163.7655362
 Leave Link  202 at Sun May 29 14:38:09 2022, MaxMem=   262144000 cpu:               0.0 elap:               0.0
 (Enter /binaries/g16/l301.exe)
 Standard basis: def2TZVP (5D, 7F)
 Ernie: Thresh=  0.10000D-02 Tol=  0.10000D-05 Strict=F.
 There are    60 symmetry adapted cartesian basis functions of A   symmetry.
 There are    55 symmetry adapted basis functions of A   symmetry.
    55 basis functions,    83 primitive gaussians,    60 cartesian basis functions
     5 alpha electrons        5 beta electrons
       nuclear repulsion energy        13.6784087271 Hartrees.
 IExCor= 4336 DFT=T Ex+Corr=M062X ExCW=0 ScaHFX=  0.540000
 ScaDFX=  1.000000  1.000000  1.000000  1.000000 ScalE2=  1.000000  1.000000
 IRadAn=      5 IRanWt=     -1 IRanGd=            0 ICorTp=0 IEmpDi=  4
 NAtoms=    5 NActive=    5 NUniq=    5 SFac= 1.00D+00 NAtFMM=   60 NAOKFM=F Big=F
 Integral buffers will be    131072 words long.
 Raffenetti 2 integral format.
 Two-electron integral symmetry is turned on.
 Leave Link  301 at Sun May 29 14:38:09 2022, MaxMem=   262144000 cpu:               0.1 elap:               0.0
 (Enter /binaries/g16/l302.exe)
 NPDir=0 NMtPBC=     1 NCelOv=     1 NCel=       1 NClECP=     1 NCelD=      1
         NCelK=      1 NCelE2=     1 NClLst=     1 CellRange=     0.0.
 One-electron integrals computed using PRISM.
 One-electron integral symmetry used in STVInt
   1 Symmetry operations used in ECPInt.
 ECPInt:  NShTT=     378 NPrTT=    1024 LenC2=     379 LenP2D=     994.
 LDataN:  DoStor=T MaxTD1= 6 Len=  172
 NBasis=    55 RedAO= T EigKep=  1.34D-03  NBF=    55
 NBsUse=    55 1.00D-06 EigRej= -1.00D+00 NBFU=    55
 Precomputing XC quadrature grid using
 IXCGrd= 4 IRadAn=           5 IRanWt=          -1 IRanGd=           0 AccXCQ= 0.00D+00.
 Generated NRdTot=       0 NPtTot=           0 NUsed=           0 NTot=          32
 NSgBfM=    60    60    60    60    60 MxSgAt=     5 MxSgA2=     5.
 Leave Link  302 at Sun May 29 14:38:09 2022, MaxMem=   262144000 cpu:               0.3 elap:               0.1
 (Enter /binaries/g16/l303.exe)
 DipDrv:  MaxL=1.
 Leave Link  303 at Sun May 29 14:38:09 2022, MaxMem=   262144000 cpu:               0.1 elap:               0.0
 (Enter /binaries/g16/l401.exe)
 ExpMin= 9.52D-02 ExpMax= 1.36D+04 ExpMxC= 4.63D+02 IAcc=3 IRadAn=         5 AccDes= 0.00D+00
 Harris functional with IExCor= 1009 and IRadAn=       5 diagonalized for initial guess.
 HarFok:  IExCor= 1009 AccDes= 0.00D+00 IRadAn=         5 IDoV= 1 UseB2=F ITyADJ=14
 ICtDFT=  3500011 ScaDFX=  1.000000  1.000000  1.000000  1.000000
 FoFCou: FMM=F IPFlag=           0 FMFlag=      100000 FMFlg1=           0
         NFxFlg=           0 DoJE=T BraDBF=F KetDBF=T FulRan=T
         wScrn=  0.000000 ICntrl=       500 IOpCl=  0 I1Cent=   200000004 NGrid=           0
         NMat0=    1 NMatS0=      1 NMatT0=    0 NMatD0=    1 NMtDS0=    0 NMtDT0=    0
 Petite list used in FoFCou.
 Harris En= -40.5445621066302    
 JPrj=0 DoOrth=F DoCkMO=F.
 Leave Link  401 at Sun May 29 14:38:09 2022, MaxMem=   262144000 cpu:               0.6 elap:               0.2
 (Enter /binaries/g16/l502.exe)
 Keep R1 ints in memory in canonical form, NReq=4730578.
 FoFCou: FMM=F IPFlag=           0 FMFlag=           0 FMFlg1=           0
         NFxFlg=           0 DoJE=F BraDBF=F KetDBF=F FulRan=T
         wScrn=  0.000000 ICntrl=       600 IOpCl=  0 I1Cent=           0 NGrid=           0
         NMat0=    1 NMatS0=   1540 NMatT0=    0 NMatD0=    1 NMtDS0=    0 NMtDT0=    0
 Symmetry not used in FoFCou.
 Two-electron integral symmetry not used.
 Closed shell SCF:
 Using DIIS extrapolation, IDIIS=  1040.
 NGot=   262144000 LenX=   260948992 LenY=   260944951
 Requested convergence on RMS density matrix=1.00D-08 within 128 cycles.
 Requested convergence on MAX density matrix=1.00D-06.
 Requested convergence on             energy=1.00D-06.
 No special actions if energy rises.
 Integral accuracy reduced to 1.0D-05 until final iterations.

 Cycle   1  Pass 0  IDiag  1:
 E= -40.3959592353600    
 DIIS: error= 6.15D-02 at cycle   1 NSaved=   1.
 NSaved= 1 IEnMin= 1 EnMin= -40.3959592353600     IErMin= 1 ErrMin= 6.15D-02
 ErrMax= 6.15D-02  0.00D+00 EMaxC= 1.00D-01 BMatC= 1.08D-01 BMatP= 1.08D-01
 IDIUse=3 WtCom= 3.85D-01 WtEn= 6.15D-01
 Coeff-Com:  0.100D+01
 Coeff-En:   0.100D+01
 Coeff:      0.100D+01
 Gap=     0.451 Goal=   None    Shift=    0.000
 GapD=    0.451 DampG=2.000 DampE=0.500 DampFc=1.0000 IDamp=-1.
 RMSDP=5.79D-03 MaxDP=7.85D-02              OVMax= 1.77D-01

 Cycle   2  Pass 0  IDiag  1:
 E= -40.4286952685939     Delta-E=       -0.032736033234 Rises=F Damp=F
 DIIS: error= 5.36D-02 at cycle   2 NSaved=   2.
 NSaved= 2 IEnMin= 2 EnMin= -40.4286952685939     IErMin= 2 ErrMin= 5.36D-02
 ErrMax= 5.36D-02  0.00D+00 EMaxC= 1.00D-01 BMatC= 6.94D-02 BMatP= 1.08D-01
 IDIUse=3 WtCom= 4.64D-01 WtEn= 5.36D-01
 Coeff-Com:  0.444D+00 0.556D+00
 Coeff-En:   0.395D+00 0.605D+00
 Coeff:      0.417D+00 0.583D+00
 Gap=     0.548 Goal=   None    Shift=    0.000
 RMSDP=2.73D-03 MaxDP=3.86D-02 DE=-3.27D-02 OVMax= 8.50D-02

 Cycle   3  Pass 0  IDiag  1:
 E= -40.4990667734359     Delta-E=       -0.070371504842 Rises=F Damp=F
 DIIS: error= 4.13D-03 at cycle   3 NSaved=   3.
 NSaved= 3 IEnMin= 3 EnMin= -40.4990667734359     IErMin= 3 ErrMin= 4.13D-03
 ErrMax= 4.13D-03  0.00D+00 EMaxC= 1.00D-01 BMatC= 4.36D-04 BMatP= 6.94D-02
 IDIUse=3 WtCom= 9.59D-01 WtEn= 4.13D-02
 Coeff-Com: -0.160D-01 0.559D-01 0.960D+00
 Coeff-En:   0.000D+00 0.000D+00 0.100D+01
 Coeff:     -0.153D-01 0.536D-01 0.962D+00
 Gap=     0.547 Goal=   None    Shift=    0.000
 RMSDP=1.93D-04 MaxDP=2.83D-03 DE=-7.04D-02 OVMax= 6.24D-03

 Cycle   4  Pass 0  IDiag  1:
 E= -40.4994799311045     Delta-E=       -0.000413157669 Rises=F Damp=F
 DIIS: error= 6.85D-05 at cycle   4 NSaved=   4.
 NSaved= 4 IEnMin= 4 EnMin= -40.4994799311045     IErMin= 4 ErrMin= 6.85D-05
 ErrMax= 6.85D-05  0.00D+00 EMaxC= 1.00D-01 BMatC= 2.10D-07 BMatP= 4.36D-04
 IDIUse=1 WtCom= 1.00D+00 WtEn= 0.00D+00
 Coeff-Com: -0.108D-03-0.314D-02-0.193D-01 0.102D+01
 Coeff:     -0.108D-03-0.314D-02-0.193D-01 0.102D+01
 Gap=     0.547 Goal=   None    Shift=    0.000
 RMSDP=6.29D-06 MaxDP=1.31D-04 DE=-4.13D-04 OVMax= 1.46D-04

 Initial convergence to 1.0D-05 achieved.  Increase integral accuracy.
 Cycle   5  Pass 1  IDiag  1:
 E= -40.4994902170089     Delta-E=       -0.000010285904 Rises=F Damp=F
 DIIS: error= 2.00D-05 at cycle   1 NSaved=   1.
 NSaved= 1 IEnMin= 1 EnMin= -40.4994902170089     IErMin= 1 ErrMin= 2.00D-05
 ErrMax= 2.00D-05  0.00D+00 EMaxC= 1.00D-01 BMatC= 2.71D-08 BMatP= 2.71D-08
 IDIUse=1 WtCom= 1.00D+00 WtEn= 0.00D+00
 Coeff-Com:  0.100D+01
 Coeff:      0.100D+01
 Gap=     0.547 Goal=   None    Shift=    0.000
 RMSDP=6.29D-06 MaxDP=1.31D-04 DE=-1.03D-05 OVMax= 4.85D-05

 Cycle   6  Pass 1  IDiag  1:
 E= -40.4994902347244     Delta-E=       -0.000000017715 Rises=F Damp=F
 DIIS: error= 1.24D-05 at cycle   2 NSaved=   2.
 NSaved= 2 IEnMin= 2 EnMin= -40.4994902347244     IErMin= 2 ErrMin= 1.24D-05
 ErrMax= 1.24D-05  0.00D+00 EMaxC= 1.00D-01 BMatC= 3.96D-09 BMatP= 2.71D-08
 IDIUse=1 WtCom= 1.00D+00 WtEn= 0.00D+00
 Coeff-Com:  0.208D+00 0.792D+00
 Coeff:      0.208D+00 0.792D+00
 Gap=     0.547 Goal=   None    Shift=    0.000
 RMSDP=9.70D-07 MaxDP=1.32D-05 DE=-1.77D-08 OVMax= 2.95D-05

 Cycle   7  Pass 1  IDiag  1:
 E= -40.4994902379535     Delta-E=       -0.000000003229 Rises=F Damp=F
 DIIS: error= 5.66D-06 at cycle   3 NSaved=   3.
 NSaved= 3 IEnMin= 3 EnMin= -40.4994902379535     IErMin= 3 ErrMin= 5.66D-06
 ErrMax= 5.66D-06  0.00D+00 EMaxC= 1.00D-01 BMatC= 9.41D-10 BMatP= 3.96D-09
 IDIUse=1 WtCom= 1.00D+00 WtEn= 0.00D+00
 Coeff-Com: -0.348D-01 0.303D+00 0.732D+00
 Coeff:     -0.348D-01 0.303D+00 0.732D+00
 Gap=     0.547 Goal=   None    Shift=    0.000
 RMSDP=2.92D-07 MaxDP=5.67D-06 DE=-3.23D-09 OVMax= 8.04D-06

 Cycle   8  Pass 1  IDiag  1:
 E= -40.4994902388262     Delta-E=       -0.000000000873 Rises=F Damp=F
 DIIS: error= 2.92D-07 at cycle   4 NSaved=   4.
 NSaved= 4 IEnMin= 4 EnMin= -40.4994902388262     IErMin= 4 ErrMin= 2.92D-07
 ErrMax= 2.92D-07  0.00D+00 EMaxC= 1.00D-01 BMatC= 1.55D-12 BMatP= 9.41D-10
 IDIUse=1 WtCom= 1.00D+00 WtEn= 0.00D+00
 Coeff-Com: -0.105D-02-0.197D-01-0.412D-01 0.106D+01
 Coeff:     -0.105D-02-0.197D-01-0.412D-01 0.106D+01
 Gap=     0.547 Goal=   None    Shift=    0.000
 RMSDP=5.54D-08 MaxDP=4.37D-07 DE=-8.73D-10 OVMax= 9.19D-07

 Cycle   9  Pass 1  IDiag  1:
 E= -40.4994902388293     Delta-E=       -0.000000000003 Rises=F Damp=F
 DIIS: error= 7.74D-08 at cycle   5 NSaved=   5.
 NSaved= 5 IEnMin= 5 EnMin= -40.4994902388293     IErMin= 5 ErrMin= 7.74D-08
 ErrMax= 7.74D-08  0.00D+00 EMaxC= 1.00D-01 BMatC= 1.36D-13 BMatP= 1.55D-12
 IDIUse=1 WtCom= 1.00D+00 WtEn= 0.00D+00
 Coeff-Com:  0.116D-02-0.150D-01-0.379D-01 0.192D+00 0.860D+00
 Coeff:      0.116D-02-0.150D-01-0.379D-01 0.192D+00 0.860D+00
 Gap=     0.547 Goal=   None    Shift=    0.000
 RMSDP=9.54D-09 MaxDP=8.02D-08 DE=-3.06D-12 OVMax= 2.11D-07

 SCF Done:  E(RM062X) =  -40.4994902388     A.U. after    9 cycles
            NFock=  9  Conv=0.95D-08     -V/T= 2.0036
 KE= 4.035246184916D+01 PE=-1.206300379278D+02 EE= 2.609967711275D+01
 Leave Link  502 at Sun May 29 14:38:10 2022, MaxMem=   262144000 cpu:               3.8 elap:               1.0
 (Enter /binaries/g16/l601.exe)
 Copying SCF densities to generalized density rwf, IOpCl= 0 IROHF=0.

 **********************************************************************

            Population analysis using the SCF Density.

 **********************************************************************

 Orbital symmetries:
       Occupied  (A) (A) (A) (A) (A)
       Virtual   (A) (A) (A) (A) (A) (A) (A) (A) (A) (A) (A) (A)
                 (A) (A) (A) (A) (A) (A) (A) (A) (A) (A) (A) (A)
                 (A) (A) (A) (A) (A) (A) (A) (A) (A) (A) (A) (A)
                 (A) (A) (A) (A) (A) (A) (A) (A) (A) (A) (A) (A)
                 (A) (A)
 The electronic state is 1-A.
 Alpha  occ. eigenvalues --  -10.50684  -0.79197  -0.46017  -0.45960  -0.45854
 Alpha virt. eigenvalues --    0.08816   0.16474   0.16532   0.16556   0.23736
 Alpha virt. eigenvalues --    0.23752   0.23783   0.41774   0.52774   0.52941
 Alpha virt. eigenvalues --    0.53020   0.60201   0.64092   0.64104   0.97222
 Alpha virt. eigenvalues --    0.97227   0.97235   1.51312   1.53527   1.53568
 Alpha virt. eigenvalues --    1.53756   1.59882   1.59883   1.60021   1.97900
 Alpha virt. eigenvalues --    2.03419   2.03474   2.03628   2.27712   2.27801
 Alpha virt. eigenvalues --    2.27824   2.43355   2.43467   2.61469   2.61758
 Alpha virt. eigenvalues --    2.61911   3.01766   3.01780   3.03575   3.38475
 Alpha virt. eigenvalues --    3.38771   3.38949   3.50187   3.50407   3.50412
 Alpha virt. eigenvalues --    4.24897   4.25501   4.25744   4.49637  22.41196
          Condensed to atoms (all electrons):
               1          2          3          4          5
     1  C    4.948321   0.401511   0.401783   0.400897   0.401512
     2  H    0.401511   0.534894  -0.025017  -0.024966  -0.024976
     3  H    0.401783  -0.025017   0.534472  -0.024809  -0.025014
     4  H    0.400897  -0.024966  -0.024809   0.535508  -0.024962
     5  H    0.401512  -0.024976  -0.025014  -0.024962   0.534889
 Mulliken charges:
               1
     1  C   -0.554023
     2  H    0.138553
     3  H    0.138585
     4  H    0.138334
     5  H    0.138551
 Sum of Mulliken charges =  -0.00000
 Mulliken charges with hydrogens summed into heavy atoms:
               1
     1  C   -0.000000
 Electronic spatial extent (au):  <R**2>=             35.1089
 Charge=             -0.0000 electrons
 Dipole moment (field-independent basis, Debye):
    X=             -0.0026    Y=             -0.0000    Z=              0.0000  Tot=              0.0026
 Quadrupole moment (field-independent basis, Debye-Ang):
   XX=             -8.3988   YY=             -8.4005   ZZ=             -8.4002
   XY=             -0.0000   XZ=             -0.0033   YZ=             -0.0001
 Traceless Quadrupole moment (field-independent basis, Debye-Ang):
   XX=              0.0011   YY=             -0.0007   ZZ=             -0.0004
   XY=             -0.0000   XZ=             -0.0033   YZ=             -0.0001
 Octapole moment (field-independent basis, Debye-Ang**2):
  XXX=              0.8056  YYY=              0.0153  ZZZ=              0.5124  XYY=             -0.3846
  XXY=              0.0030  XXZ=              0.0943  XZZ=             -0.4430  YZZ=             -0.0184
  YYZ=             -0.6016  XYZ=              0.0024
 Hexadecapole moment (field-independent basis, Debye-Ang**3):
 XXXX=            -15.6942 YYYY=            -15.8756 ZZZZ=            -15.9277 XXXY=              0.0022
 XXXZ=              0.0416 YYYX=             -0.0120 YYYZ=              0.0011 ZZZX=             -0.3805
 ZZZY=              0.0009 XXYY=             -5.5847 XXZZ=             -5.4992 YYZZ=             -5.2479
 XXYZ=             -0.0024 YYXZ=              0.3225 ZZXY=              0.0097
 N-N= 1.367840872710D+01 E-N=-1.206300384263D+02  KE= 4.035246184916D+01
 No NMR shielding tensors so no spin-rotation constants.
 Leave Link  601 at Sun May 29 14:38:10 2022, MaxMem=   262144000 cpu:               0.3 elap:               0.1
 (Enter /binaries/g16/l9999.exe)
 Unable to Open any file for archive entry.
 1\1\GINC-WEB\SP\RM062X\def2TZVP\C1H4\CALCUS\29-May-2022\0\\#p sp M062X
 /Def2TZVP\\File created by ccinput\\0,1\C,0,4.2918,3.6588,0.\H,0,4.648
 5,2.65,0.\H,0,4.6485,4.1632,0.8707\H,0,4.6485,4.1632,-0.8797\H,0,3.221
 8,3.6588,0.\\Version=ES64L-G16RevC.01\State=1-A\HF=-40.4994902\RMSD=9.
 540e-09\Dipole=-0.000301,-0.000443,0.0008866\Quadrupole=-0.0009984,-0.
 0016669,0.0026653,-0.0007642,0.0003295,0.0004687\PG=C01 [X(C1H4)]\\@
 The archive entry for this job was punched.


 "WOULD YOU TELL ME PLEASE, WHICH WAY I OUGHT TO WALK FROM HERE?"
 "THAT DEPENDS A GREAT DEAL ON WHERE YOU WANT TO GO," SAID THE CAT.
 "I DON'T MUCH CARE WHERE -- ", SAID ALICE.
 "THEN IT DOESN'T MATTER WHICH WAY YOU WALK," SAID THE CAT.

                                      -- LEWIS CARROLL
 Job cpu time:       0 days  0 hours  0 minutes  5.8 seconds.
 Elapsed time:       0 days  0 hours  0 minutes  1.5 seconds.
 File lengths (MBytes):  RWF=      6 Int=      0 D2E=      0 Chk=      1 Scr=      1
 Normal termination of Gaussian 16 at Sun May 29 14:38:10 2022.
