5
Coordinates from ORCA-job calc Relaxed Surface Scan Step 1
  C       4.066328      4.296511     -0.002443
  H       5.233229      0.996764      0.001042
  H       4.565946      4.516995      0.937565
  H       4.564827      4.511810     -0.944250
  H       3.028770      3.971919     -0.000914
>
5
Coordinates from ORCA-job calc Relaxed Surface Scan Step 2
  C       4.103445      4.191516     -0.002402
  H       5.103601      1.363146      0.000952
  H       4.596625      4.429324      0.936954
  H       4.595145      4.425109     -0.943594
  H       3.060284      3.884905     -0.000909
>
5
Coordinates from ORCA-job calc Relaxed Surface Scan Step 3
  C       4.144577      4.075273     -0.002335
  H       4.977930      1.718260      0.000775
  H       4.623840      4.349058      0.935062
  H       4.622131      4.345528     -0.941630
  H       3.090622      3.805881     -0.000872
>
5
Coordinates from ORCA-job calc Relaxed Surface Scan Step 4
  C       4.193088      3.938123     -0.002185
  H       4.859682      2.052481      0.000437
  H       4.643850      4.282139      0.929152
  H       4.642071      4.278864     -0.935585
  H       3.120408      3.742394     -0.000819
>
5
Coordinates from ORCA-job calc Relaxed Surface Scan Step 5
  C       4.247722      3.783602     -0.001975
  H       4.747627      2.369356      0.000009
  H       4.656156      4.225592      0.916699
  H       4.654392      4.222385     -0.922965
  H       3.153202      3.693065     -0.000768
