      -----------------------------------------------------------      
     |                   =====================                   |     
     |                           x T B                           |     
     |                   =====================                   |     
     |                         S. Grimme                         |     
     |          Mulliken Center for Theoretical Chemistry        |     
     |                    University of Bonn                     |     
      -----------------------------------------------------------      

   * xtb version 6.4.1 (afa7bdf) compiled by 'ehlert@majestix' on 2021-06-10

   xtb is free software: you can redistribute it and/or modify it under
   the terms of the GNU Lesser General Public License as published by
   the Free Software Foundation, either version 3 of the License, or
   (at your option) any later version.
   
   xtb is distributed in the hope that it will be useful,
   but WITHOUT ANY WARRANTY; without even the implied warranty of
   MERCHANTABILITY or FITNESS FOR A PARTICULAR PURPOSE.  See the
   GNU Lesser General Public License for more details.
   
   Cite this work as:
   * C. Bannwarth, E. Caldeweyher, S. Ehlert, A. Hansen, P. Pracht,
     J. Seibert, S. Spicher, S. Grimme, WIREs Comput. Mol. Sci., 2020, 11,
     e01493. DOI: 10.1002/wcms.1493
   
   for GFN2-xTB:
   * C. Bannwarth, S. Ehlert and S. Grimme., J. Chem. Theory Comput., 2019,
     15, 1652-1671. DOI: 10.1021/acs.jctc.8b01176
   for GFN1-xTB:
   * S. Grimme, C. Bannwarth, P. Shushkov, J. Chem. Theory Comput., 2017,
     13, 1989-2009. DOI: 10.1021/acs.jctc.7b00118
   for GFN0-xTB:
   * P. Pracht, E. Caldeweyher, S. Ehlert, S. Grimme, ChemRxiv, 2019, preprint.
     DOI: 10.26434/chemrxiv.8326202.v1
   for GFN-FF:
   * S. Spicher and S. Grimme, Angew. Chem. Int. Ed., 2020, 59, 15665-15673.
     DOI: 10.1002/anie.202004239
   
   for DFT-D4:
   * E. Caldeweyher, C. Bannwarth and S. Grimme, J. Chem. Phys., 2017,
     147, 034112. DOI: 10.1063/1.4993215
   * E. Caldeweyher, S. Ehlert, A. Hansen, H. Neugebauer, S. Spicher,
     C. Bannwarth and S. Grimme, J. Chem. Phys., 2019, 150, 154122.
     DOI: 10.1063/1.5090222
   * E. Caldeweyher, J.-M. Mewes, S. Ehlert and S. Grimme, Phys. Chem. Chem. Phys.
     2020, 22, 8499-8512. DOI: 10.1039/D0CP00502A
   
   for sTDA-xTB:
   * S. Grimme and C. Bannwarth, J. Chem. Phys., 2016, 145, 054103.
     DOI: 10.1063/1.4959605
   
   in the mass-spec context:
   * V. Asgeirsson, C. Bauer and S. Grimme, Chem. Sci., 2017, 8, 4879.
     DOI: 10.1039/c7sc00601b
   * J. Koopman and S. Grimme, ACS Omega 2019, 4, 12, 15120-15133.
     DOI: 10.1021/acsomega.9b02011
   
   for metadynamics refer to:
   * S. Grimme, J. Chem. Theory Comput., 2019, 155, 2847-2862
     DOI: 10.1021/acs.jctc.9b00143
   
   for SPH calculations refer to:
   * S. Spicher and S. Grimme, J. Chem. Theory Comput., 2021, 17, 1701-1714
     DOI: 10.1021/acs.jctc.0c01306
   
   with help from (in alphabetical order)
   P. Atkinson, C. Bannwarth, F. Bohle, G. Brandenburg, E. Caldeweyher
   M. Checinski, S. Dohm, S. Ehlert, S. Ehrlich, I. Gerasimov, J. Koopman
   C. Lavigne, S. Lehtola, F. März, M. Müller, F. Musil, H. Neugebauer
   J. Pisarek, C. Plett, P. Pracht, J. Seibert, P. Shushkov, S. Spicher
   M. Stahn, M. Steiner, T. Strunk, J. Stückrath, T. Rose, and J. Unsleber
   
 * started run on 2022/05/29 at 19:00:51.396     

           -------------------------------------------------
          |                Calculation Setup                |
           -------------------------------------------------

          program call               : xtb in.xyz --opt tight -g ch2cl2 --chrg 1
          hostname                   : web
          coordinate file            : in.xyz
          omp threads                :                    16
          number of atoms            :                    23
          number of electrons        :                    64
          charge                     :                     1
          spin                       :                   0.0
          first test random number   :      0.74174384635325

   ID    Z sym.   atoms
    1    6 C      1-6, 13-16, 18, 20
    2    1 H      7-11, 17, 19, 21-23
    3   53 I      12

           -------------------------------------------------
          |                 G F N 2 - x T B                 |
           -------------------------------------------------

        Reference                      10.1021/acs.jctc.8b01176
      * Hamiltonian:
        H0-scaling (s, p, d)           1.850000    2.230000    2.230000
        zeta-weighting                 0.500000
      * Dispersion:
        s8                             2.700000
        a1                             0.520000
        a2                             5.000000
        s9                             5.000000
      * Repulsion:
        kExp                           1.500000    1.000000
        rExp                           1.000000
      * Coulomb:
        alpha                          2.000000
        third order                    shell-resolved
        anisotropic                    true
        a3                             3.000000
        a5                             4.000000
        cn-shift                       1.200000
        cn-exp                         4.000000
        max-rad                        5.000000

      * Solvation model:               GBSA
        Solvent                        ch2cl2
        Parameter file                 internal GFN2-xTB/GBSA
        Dielectric constant                8.9300E+00
        Reference state                gsolv [1 M gas/solution]
        Free energy shift                  4.4408E-03 Eh       2.7867E+00 kcal/mol
        Temperature                        2.9815E+02 K
        Density                            1.3300E+00 kg/L
        Solvent mass                       8.4930E+01 g/mol
        Interaction kernel             Still
        Born radius scaling (c1)           1.4917E+00
        Born radii integrator          GBOBC
        Born offset                        0.0000E+00 a0       0.0000E+00 AA
        H-bond correction              false
        Ion screening                  false
        Surface tension                    1.0000E-05 Eh       1.5569E+01 dyn/cm
        Grid points                               230 per atom

          ...................................................
          :                      SETUP                      :
          :.................................................:
          :  # basis functions                  68          :
          :  # atomic orbitals                  67          :
          :  # shells                           37          :
          :  # electrons                        64          :
          :  max. iterations                   250          :
          :  Hamiltonian                  GFN2-xTB          :
          :  restarted?                      false          :
          :  GBSA solvation                   true          :
          :  PC potential                    false          :
          :  electronic temp.          300.0000000     K    :
          :  accuracy                    1.0000000          :
          :  -> integral cutoff          0.2500000E+02      :
          :  -> integral neglect         0.1000000E-07      :
          :  -> SCF convergence          0.1000000E-05 Eh   :
          :  -> wf. convergence          0.1000000E-03 e    :
          :  Broyden damping             0.4000000          :
          ...................................................

 iter      E             dE          RMSdq      gap      omega  full diag
   1    -34.6715286 -0.346715E+02  0.492E+00    3.46       0.0  T
   2    -34.7090891 -0.375604E-01  0.351E+00    3.41       1.0  T
   3    -34.7106167 -0.152760E-02  0.166E+00    3.61       1.0  T
   4    -34.7252821 -0.146654E-01  0.420E-01    3.43       1.0  T
   5    -34.7255713 -0.289283E-03  0.258E-01    3.49       1.0  T
   6    -34.7258948 -0.323467E-03  0.881E-02    3.50       1.0  T
   7    -34.7259293 -0.345067E-04  0.617E-02    3.48       1.0  T
   8    -34.7259386 -0.933413E-05  0.153E-02    3.49       1.4  T
   9    -34.7259395 -0.858581E-06  0.943E-03    3.49       2.2  T
  10    -34.7259397 -0.230513E-06  0.185E-03    3.49      11.3  T
  11    -34.7259397 -0.103976E-07  0.852E-04    3.49      24.5  T
  12    -34.7259397 -0.931330E-09  0.860E-05    3.49     242.3  T

   *** convergence criteria satisfied after 12 iterations ***

         #    Occupation            Energy/Eh            Energy/eV
      -------------------------------------------------------------
         1        2.0000           -0.8182510             -22.2657
       ...           ...                  ...                  ...
        26        2.0000           -0.4728816             -12.8678
        27        2.0000           -0.4655472             -12.6682
        28        2.0000           -0.4637496             -12.6193
        29        2.0000           -0.4574450             -12.4477
        30        2.0000           -0.4543067             -12.3623
        31        2.0000           -0.4517464             -12.2926
        32        2.0000           -0.4516782             -12.2908 (HOMO)
        33                         -0.3234918              -8.8027 (LUMO)
        34                         -0.3030389              -8.2461
        35                         -0.2742003              -7.4614
        36                         -0.2737109              -7.4481
        37                         -0.2669469              -7.2640
       ...                                ...                  ...
        67                          0.5889634              16.0265
      -------------------------------------------------------------
                  HL-Gap            0.1281864 Eh            3.4881 eV
             Fermi-level           -0.3875850 Eh          -10.5467 eV

 SCC (total)                   0 d,  0 h,  0 min,  0.012 sec
 SCC setup                      ...        0 min,  0.000 sec (  1.978%)
 Dispersion                     ...        0 min,  0.000 sec (  1.134%)
 classical contributions        ...        0 min,  0.000 sec (  0.194%)
 integral evaluation            ...        0 min,  0.001 sec ( 10.186%)
 iterations                     ...        0 min,  0.008 sec ( 68.132%)
 molecular gradient             ...        0 min,  0.002 sec ( 17.525%)
 printout                       ...        0 min,  0.000 sec (  0.708%)

         :::::::::::::::::::::::::::::::::::::::::::::::::::::
         ::                     SUMMARY                     ::
         :::::::::::::::::::::::::::::::::::::::::::::::::::::
         :: total energy             -34.161608790064 Eh    ::
         :: total w/o Gsasa/hb       -34.144022451030 Eh    ::
         :: gradient norm              0.073867502058 Eh/a0 ::
         :: HOMO-LUMO gap              3.488129528714 eV    ::
         ::.................................................::
         :: SCC energy               -34.725939748380 Eh    ::
         :: -> isotropic ES            0.073057168989 Eh    ::
         :: -> anisotropic ES         -0.011250311008 Eh    ::
         :: -> anisotropic XC          0.024979114666 Eh    ::
         :: -> dispersion             -0.021813741526 Eh    ::
         :: -> Gsolv                  -0.073346158577 Eh    ::
         ::    -> Gelec               -0.055759819544 Eh    ::
         ::    -> Gsasa               -0.022027168207 Eh    ::
         ::    -> Ghb                  0.000000000000 Eh    ::
         ::    -> Gshift               0.004440829173 Eh    ::
         :: repulsion energy           0.564292360148 Eh    ::
         :: add. restraining           0.000000000000 Eh    ::
         :: total charge               1.000000000000 e     ::
         :::::::::::::::::::::::::::::::::::::::::::::::::::::

      ----------------------------------------------------------- 
     |                   =====================                   |
     |                        A N C O P T                        |
     |                   =====================                   |
     |               Approximate Normal Coordinate               |
     |                Rational Function Optimizer                |
      ----------------------------------------------------------- 

          ...................................................
          :                      SETUP                      :
          :.................................................:
          :   optimization level             tight          :
          :   max. optcycles                   200          :
          :   ANC micro-cycles                  20          :
          :   degrees of freedom                63          :
          :.................................................:
          :   RF solver                   davidson          :
          :   write xtbopt.log                true          :
          :   linear?                        false          :
          :   energy convergence         0.1000000E-05 Eh   :
          :   grad. convergence          0.8000000E-03 Eh/α :
          :   maximium RF displ.         1.0000000          :
          :   Hlow (freq-cutoff)         0.1000000E-01      :
          :   Hmax (freq-cutoff)         5.0000000          :
          :   S6 in model hess.         20.0000000          :
          ...................................................

generating ANC from model Hessian ...
Using Lindh-Hessian (1995)
 Shifting diagonal of input Hessian by   9.712374269941529E-003
 Lowest  eigenvalues of input Hessian
    0.000000    0.000000    0.000000    0.000000    0.000000    0.000000
    0.010000    0.010072    0.010151    0.011288    0.012076    0.012884
    0.022171    0.022195    0.026543    0.026731    0.027145    0.030529
 Highest eigenvalues
    1.816466    1.817004    1.886391    1.886967    1.896075    1.896694
 

........................................................................
.............................. CYCLE    1 ..............................
........................................................................
   1    -34.7259397 -0.347259E+02  0.451E-05    3.49       0.0  T
   2    -34.7259397 -0.265032E-11  0.313E-05    3.49     665.6  T
   3    -34.7259397 -0.611067E-12  0.191E-05    3.49    1094.4  T
     SCC iter.                  ...        0 min,  0.002 sec
     gradient                   ...        0 min,  0.002 sec
 * total energy  :   -34.1616088 Eh     change       -0.5175593E-10 Eh
   gradient norm :     0.0738677 Eh/α   predicted     0.0000000E+00 (-100.00%)
   displ. norm   :     0.3999397 α      lambda       -0.1763749E-01
   maximum displ.:     0.2556831 α      in ANC's #16, #5, #42, ...

........................................................................
.............................. CYCLE    2 ..............................
........................................................................
   1    -34.7595289 -0.347595E+02  0.611E-01    3.44       0.0  T
   2    -34.7596279 -0.989227E-04  0.396E-01    3.48       1.0  T
   3    -34.7596739 -0.460876E-04  0.155E-01    3.50       1.0  T
   4    -34.7597105 -0.365844E-04  0.101E-01    3.52       1.0  T
   5    -34.7597217 -0.111956E-04  0.399E-02    3.53       1.0  T
   6    -34.7597360 -0.142822E-04  0.175E-02    3.53       1.2  T
   7    -34.7597371 -0.111310E-05  0.771E-03    3.53       2.7  T
   8    -34.7597374 -0.297120E-06  0.111E-03    3.53      18.8  T
   9    -34.7597374 -0.836299E-08  0.398E-04    3.53      52.3  T
  10    -34.7597374 -0.160847E-08  0.166E-04    3.53     125.5  T
     SCC iter.                  ...        0 min,  0.006 sec
     gradient                   ...        0 min,  0.002 sec
 * total energy  :   -34.1696047 Eh     change       -0.7995880E-02 Eh
   gradient norm :     0.0311615 Eh/α   predicted    -0.1023024E-01 (  27.94%)
   displ. norm   :     0.2016693 α      lambda       -0.3234632E-02
   maximum displ.:     0.1174105 α      in ANC's #16, #1, #5, ...

........................................................................
.............................. CYCLE    3 ..............................
........................................................................
   1    -34.7838280 -0.347838E+02  0.230E-01    3.75       0.0  T
   2    -34.7838720 -0.440422E-04  0.166E-01    3.75       1.0  T
   3    -34.7838845 -0.125203E-04  0.948E-02    3.76       1.0  T
   4    -34.7839207 -0.361446E-04  0.319E-02    3.75       1.0  T
   5    -34.7839227 -0.199772E-05  0.231E-02    3.75       1.0  T
   6    -34.7839235 -0.789720E-06  0.576E-03    3.74       3.6  T
   7    -34.7839238 -0.317194E-06  0.296E-03    3.74       7.0  T
   8    -34.7839238 -0.308618E-07  0.993E-04    3.74      21.0  T
   9    -34.7839238 -0.854939E-09  0.289E-04    3.74      72.2  T
     SCC iter.                  ...        0 min,  0.006 sec
     gradient                   ...        0 min,  0.001 sec
 * total energy  :   -34.1713303 Eh     change       -0.1725671E-02 Eh
   gradient norm :     0.0120578 Eh/α   predicted    -0.1683157E-02 (  -2.46%)
   displ. norm   :     0.2082255 α      lambda       -0.6427621E-03
   maximum displ.:     0.1487330 α      in ANC's #1, #5, #16, ...

........................................................................
.............................. CYCLE    4 ..............................
........................................................................
   1    -34.7841644 -0.347842E+02  0.943E-02    3.73       0.0  T
   2    -34.7841675 -0.308769E-05  0.474E-02    3.72       1.0  T
   3    -34.7841658  0.164298E-05  0.154E-02    3.72       1.4  T
   4    -34.7841677 -0.190348E-05  0.757E-03    3.72       2.8  T
   5    -34.7841682 -0.443032E-06  0.263E-03    3.72       7.9  T
   6    -34.7841682 -0.158624E-08  0.669E-04    3.72      31.2  T
   7    -34.7841682 -0.147804E-08  0.475E-04    3.72      43.9  T
     SCC iter.                  ...        0 min,  0.004 sec
     gradient                   ...        0 min,  0.001 sec
 * total energy  :   -34.1718042 Eh     change       -0.4738267E-03 Eh
   gradient norm :     0.0032933 Eh/α   predicted    -0.3353354E-03 ( -29.23%)
   displ. norm   :     0.2446479 α      lambda       -0.4028994E-03
   maximum displ.:     0.1993517 α      in ANC's #1, #5, #10, ...

........................................................................
.............................. CYCLE    5 ..............................
........................................................................
   1    -34.7816838 -0.347817E+02  0.783E-02    3.68       0.0  T
   2    -34.7816865 -0.270126E-05  0.395E-02    3.67       1.0  T
   3    -34.7816862  0.251572E-06  0.179E-02    3.67       1.2  T
   4    -34.7816868 -0.538537E-06  0.695E-03    3.67       3.0  T
   5    -34.7816870 -0.232933E-06  0.389E-03    3.67       5.4  T
   6    -34.7816871 -0.528250E-07  0.177E-03    3.67      11.8  T
   7    -34.7816871 -0.683372E-08  0.113E-03    3.67      18.4  T
   8    -34.7816871 -0.450496E-08  0.130E-04    3.67     160.9  T
   9    -34.7816871 -0.522604E-10  0.441E-05    3.67     472.8  T
     SCC iter.                  ...        0 min,  0.005 sec
     gradient                   ...        0 min,  0.001 sec
 * total energy  :   -34.1721098 Eh     change       -0.3056644E-03 Eh
   gradient norm :     0.0050250 Eh/α   predicted    -0.2135075E-03 ( -30.15%)
   displ. norm   :     0.1721101 α      lambda       -0.2040305E-03
   maximum displ.:     0.1594722 α      in ANC's #1, #5, #10, ...

........................................................................
.............................. CYCLE    6 ..............................
........................................................................
   1    -34.7813142 -0.347813E+02  0.507E-02    3.65       0.0  T
   2    -34.7813156 -0.137157E-05  0.291E-02    3.65       1.0  T
   3    -34.7813152  0.447701E-06  0.156E-02    3.65       1.3  T
   4    -34.7813161 -0.932728E-06  0.522E-03    3.65       4.0  T
   5    -34.7813163 -0.223003E-06  0.292E-03    3.65       7.1  T
   6    -34.7813163 -0.736345E-08  0.135E-03    3.65      15.4  T
   7    -34.7813163 -0.735954E-08  0.699E-04    3.65      29.8  T
   8    -34.7813163 -0.163171E-08  0.115E-04    3.65     181.5  T
     SCC iter.                  ...        0 min,  0.005 sec
     gradient                   ...        0 min,  0.001 sec
 * total energy  :   -34.1722929 Eh     change       -0.1830378E-03 Eh
   gradient norm :     0.0049085 Eh/α   predicted    -0.1050390E-03 ( -42.61%)
   displ. norm   :     0.1237575 α      lambda       -0.1582412E-03
   maximum displ.:     0.1227239 α      in ANC's #1, #10, #5, ...

........................................................................
.............................. CYCLE    7 ..............................
........................................................................
   1    -34.7816806 -0.347817E+02  0.459E-02    3.64       0.0  T
   2    -34.7816816 -0.931265E-06  0.280E-02    3.64       1.0  T
   3    -34.7816808  0.802939E-06  0.147E-02    3.64       1.4  T
   4    -34.7816822 -0.142364E-05  0.289E-03    3.64       7.2  T
   5    -34.7816823 -0.104780E-06  0.154E-03    3.64      13.5  T
   6    -34.7816823  0.122372E-08  0.748E-04    3.64      27.9  T
   7    -34.7816823 -0.430086E-08  0.260E-04    3.64      80.3  T
     SCC iter.                  ...        0 min,  0.004 sec
     gradient                   ...        0 min,  0.001 sec
 * total energy  :   -34.1724422 Eh     change       -0.1493419E-03 Eh
   gradient norm :     0.0028362 Eh/α   predicted    -0.8033328E-04 ( -46.21%)
   displ. norm   :     0.1235412 α      lambda       -0.1572865E-03
   maximum displ.:     0.1212109 α      in ANC's #1, #5, #2, ...

........................................................................
.............................. CYCLE    8 ..............................
........................................................................
   1    -34.7823923 -0.347824E+02  0.563E-02    3.64       0.0  T
   2    -34.7823929 -0.634945E-06  0.336E-02    3.64       1.0  T
   3    -34.7823911  0.183511E-05  0.149E-02    3.64       1.4  T
   4    -34.7823934 -0.230347E-05  0.175E-03    3.64      11.9  T
   5    -34.7823934 -0.531905E-07  0.671E-04    3.64      31.1  T
   6    -34.7823934  0.306351E-09  0.359E-04    3.64      58.1  T
     SCC iter.                  ...        0 min,  0.003 sec
     gradient                   ...        0 min,  0.001 sec
 * total energy  :   -34.1725911 Eh     change       -0.1488477E-03 Eh
   gradient norm :     0.0015247 Eh/α   predicted    -0.7984795E-04 ( -46.36%)
   displ. norm   :     0.2036693 α      lambda       -0.1592141E-03
   maximum displ.:     0.1944215 α      in ANC's #1, #5, #10, ...

........................................................................
.............................. CYCLE    9 ..............................
........................................................................
   1    -34.7831241 -0.347831E+02  0.100E-01    3.64       0.0  T
   2    -34.7831247 -0.671269E-06  0.589E-02    3.64       1.0  T
   3    -34.7831217  0.299504E-05  0.163E-02    3.64       1.3  T
   4    -34.7831252 -0.346945E-05  0.166E-03    3.64      12.6  T
   5    -34.7831252 -0.397405E-07  0.709E-04    3.64      29.4  T
   6    -34.7831252 -0.876028E-10  0.207E-04    3.64     100.7  T
     SCC iter.                  ...        0 min,  0.003 sec
     gradient                   ...        0 min,  0.001 sec
 * total energy  :   -34.1728127 Eh     change       -0.2216157E-03 Eh
   gradient norm :     0.0031412 Eh/α   predicted    -0.8108054E-04 ( -63.41%)
   displ. norm   :     0.1308900 α      lambda       -0.1406550E-03
   maximum displ.:     0.1256789 α      in ANC's #1, #5, #10, ...

........................................................................
.............................. CYCLE   10 ..............................
........................................................................
   1    -34.7833995 -0.347834E+02  0.611E-02    3.64       0.0  T
   2    -34.7833996 -0.795108E-07  0.358E-02    3.64       1.0  T
   3    -34.7833997 -0.393541E-07  0.836E-04    3.64      25.0  T
   4    -34.7833997 -0.101117E-08  0.490E-04    3.64      42.5  T
     SCC iter.                  ...        0 min,  0.003 sec
     gradient                   ...        0 min,  0.001 sec
 * total energy  :   -34.1729491 Eh     change       -0.1364304E-03 Eh
   gradient norm :     0.0031515 Eh/α   predicted    -0.7153633E-04 ( -47.57%)
   displ. norm   :     0.1258571 α      lambda       -0.1329709E-03
   maximum displ.:     0.1219489 α      in ANC's #1, #5, #2, ...

........................................................................
.............................. CYCLE   11 ..............................
........................................................................
   1    -34.7835341 -0.347835E+02  0.564E-02    3.64       0.0  T
   2    -34.7835341 -0.905018E-07  0.331E-02    3.64       1.0  T
   3    -34.7835338  0.323811E-06  0.509E-03    3.64       4.1  T
   4    -34.7835342 -0.395167E-06  0.547E-04    3.64      38.1  T
   5    -34.7835342  0.495106E-10  0.326E-04    3.64      64.0  T
     SCC iter.                  ...        0 min,  0.003 sec
     gradient                   ...        0 min,  0.001 sec
 * total energy  :   -34.1730780 Eh     change       -0.1289204E-03 Eh
   gradient norm :     0.0022896 Eh/α   predicted    -0.6754161E-04 ( -47.61%)
   displ. norm   :     0.1191814 α      lambda       -0.1223163E-03
   maximum displ.:     0.1168150 α      in ANC's #1, #5, #2, ...

........................................................................
.............................. CYCLE   12 ..............................
........................................................................
   1    -34.7835831 -0.347836E+02  0.489E-02    3.63       0.0  T
   2    -34.7835832 -0.841010E-07  0.287E-02    3.63       1.0  T
   3    -34.7835827  0.453413E-06  0.583E-03    3.64       3.6  T
   4    -34.7835832 -0.531926E-06  0.501E-04    3.63      41.6  T
   5    -34.7835832  0.127685E-09  0.142E-04    3.63     147.0  T
     SCC iter.                  ...        0 min,  0.003 sec
     gradient                   ...        0 min,  0.001 sec
 * total energy  :   -34.1731967 Eh     change       -0.1187131E-03 Eh
   gradient norm :     0.0013277 Eh/α   predicted    -0.6202891E-04 ( -47.75%)
   displ. norm   :     0.1676897 α      lambda       -0.1106902E-03
   maximum displ.:     0.1652511 α      in ANC's #1, #2, #3, ...

........................................................................
.............................. CYCLE   13 ..............................
........................................................................
   1    -34.7836207 -0.347836E+02  0.622E-02    3.63       0.0  T
   2    -34.7836208 -0.125647E-06  0.365E-02    3.63       1.0  T
   3    -34.7836204  0.459042E-06  0.589E-03    3.63       3.5  T
   4    -34.7836209 -0.554676E-06  0.785E-04    3.63      26.6  T
   5    -34.7836209 -0.466358E-09  0.456E-04    3.63      45.7  T
     SCC iter.                  ...        0 min,  0.003 sec
     gradient                   ...        0 min,  0.001 sec
 * total energy  :   -34.1733569 Eh     change       -0.1601501E-03 Eh
   gradient norm :     0.0014218 Eh/α   predicted    -0.5604012E-04 ( -65.01%)
   displ. norm   :     0.1553693 α      lambda       -0.9775785E-04
   maximum displ.:     0.1524514 α      in ANC's #1, #2, #3, ...

........................................................................
.............................. CYCLE   14 ..............................
........................................................................
   1    -34.7836390 -0.347836E+02  0.523E-02    3.62       0.0  T
   2    -34.7836392 -0.162596E-06  0.304E-02    3.62       1.0  T
   3    -34.7836391  0.621707E-07  0.368E-03    3.62       5.7  T
   4    -34.7836392 -0.101744E-06  0.132E-03    3.62      15.7  T
   5    -34.7836392 -0.106554E-07  0.726E-04    3.62      28.7  T
   6    -34.7836392 -0.145737E-08  0.376E-04    3.62      55.4  T
     SCC iter.                  ...        0 min,  0.004 sec
     gradient                   ...        0 min,  0.001 sec
 * total energy  :   -34.1734992 Eh     change       -0.1423049E-03 Eh
   gradient norm :     0.0019584 Eh/α   predicted    -0.4940729E-04 ( -65.28%)
   displ. norm   :     0.1512648 α      lambda       -0.9236303E-04
   maximum displ.:     0.1471141 α      in ANC's #1, #2, #5, ...

........................................................................
.............................. CYCLE   15 ..............................
........................................................................
   1    -34.7838584 -0.347839E+02  0.497E-02    3.61       0.0  T
   2    -34.7838587 -0.283267E-06  0.288E-02    3.61       1.0  T
   3    -34.7838583  0.411984E-06  0.765E-03    3.61       2.7  T
   4    -34.7838587 -0.483212E-06  0.207E-03    3.61      10.1  T
   5    -34.7838588 -0.443716E-07  0.103E-03    3.61      20.3  T
   6    -34.7838588 -0.918639E-09  0.546E-04    3.61      38.2  T
   7    -34.7838588 -0.983178E-09  0.321E-04    3.61      65.0  T
     SCC iter.                  ...        0 min,  0.004 sec
     gradient                   ...        0 min,  0.001 sec
 * total energy  :   -34.1736324 Eh     change       -0.1332190E-03 Eh
   gradient norm :     0.0020018 Eh/α   predicted    -0.4665297E-04 ( -64.98%)
   displ. norm   :     0.0999501 α      lambda       -0.8739904E-04
   maximum displ.:     0.0967760 α      in ANC's #1, #2, #3, ...

........................................................................
.............................. CYCLE   16 ..............................
........................................................................
   1    -34.7839782 -0.347840E+02  0.334E-02    3.60       0.0  T
   2    -34.7839783 -0.162377E-06  0.195E-02    3.60       1.1  T
   3    -34.7839780  0.324806E-06  0.647E-03    3.60       3.2  T
   4    -34.7839784 -0.386171E-06  0.137E-03    3.60      15.2  T
   5    -34.7839784 -0.218078E-07  0.703E-04    3.60      29.7  T
   6    -34.7839784 -0.319694E-09  0.366E-04    3.60      57.0  T
     SCC iter.                  ...        0 min,  0.004 sec
     gradient                   ...        0 min,  0.001 sec
 * total energy  :   -34.1737175 Eh     change       -0.8510397E-04 Eh
   gradient norm :     0.0016347 Eh/α   predicted    -0.4413669E-04 ( -48.14%)
   displ. norm   :     0.1532576 α      lambda       -0.8529961E-04
   maximum displ.:     0.1479285 α      in ANC's #1, #2, #3, ...

........................................................................
.............................. CYCLE   17 ..............................
........................................................................
   1    -34.7841475 -0.347841E+02  0.525E-02    3.59       0.0  T
   2    -34.7841479 -0.412215E-06  0.308E-02    3.59       1.0  T
   3    -34.7841470  0.959569E-06  0.109E-02    3.59       1.9  T
   4    -34.7841481 -0.114496E-05  0.202E-03    3.59      10.3  T
   5    -34.7841482 -0.565973E-07  0.925E-04    3.59      22.5  T
   6    -34.7841482 -0.431726E-10  0.502E-04    3.59      41.5  T
     SCC iter.                  ...        0 min,  0.004 sec
     gradient                   ...        0 min,  0.001 sec
 * total energy  :   -34.1738403 Eh     change       -0.1227638E-03 Eh
   gradient norm :     0.0009934 Eh/α   predicted    -0.4309597E-04 ( -64.90%)
   displ. norm   :     0.1498484 α      lambda       -0.7819181E-04
   maximum displ.:     0.1443337 α      in ANC's #1, #2, #3, ...

........................................................................
.............................. CYCLE   18 ..............................
........................................................................
   1    -34.7844421 -0.347844E+02  0.547E-02    3.59       0.0  T
   2    -34.7844423 -0.260965E-06  0.321E-02    3.58       1.0  T
   3    -34.7844417  0.616306E-06  0.824E-03    3.59       2.5  T
   4    -34.7844424 -0.717817E-06  0.168E-03    3.59      12.4  T
   5    -34.7844425 -0.326686E-07  0.881E-04    3.59      23.7  T
   6    -34.7844425 -0.484668E-09  0.442E-04    3.59      47.1  T
     SCC iter.                  ...        0 min,  0.004 sec
     gradient                   ...        0 min,  0.001 sec
 * total energy  :   -34.1739525 Eh     change       -0.1122488E-03 Eh
   gradient norm :     0.0008791 Eh/α   predicted    -0.3948703E-04 ( -64.82%)
   displ. norm   :     0.1464765 α      lambda       -0.7241715E-04
   maximum displ.:     0.1406583 α      in ANC's #1, #2, #3, ...

........................................................................
.............................. CYCLE   19 ..............................
........................................................................
   1    -34.7845947 -0.347846E+02  0.548E-02    3.58       0.0  T
   2    -34.7845949 -0.172773E-06  0.321E-02    3.58       1.0  T
   3    -34.7845945  0.398625E-06  0.624E-03    3.58       3.3  T
   4    -34.7845950 -0.473373E-06  0.122E-03    3.58      17.0  T
   5    -34.7845950 -0.191144E-07  0.551E-04    3.58      37.9  T
   6    -34.7845950 -0.220126E-10  0.289E-04    3.58      72.1  T
     SCC iter.                  ...        0 min,  0.004 sec
     gradient                   ...        0 min,  0.001 sec
 * total energy  :   -34.1740571 Eh     change       -0.1045319E-03 Eh
   gradient norm :     0.0010778 Eh/α   predicted    -0.3655475E-04 ( -65.03%)
   displ. norm   :     0.1430391 α      lambda       -0.6714198E-04
   maximum displ.:     0.1374236 α      in ANC's #1, #2, #3, ...

........................................................................
.............................. CYCLE   20 ..............................
........................................................................
   1    -34.7848183 -0.347848E+02  0.550E-02    3.58       0.0  T
   2    -34.7848184 -0.899167E-07  0.322E-02    3.58       1.0  T
   3    -34.7848184  0.145377E-07  0.222E-03    3.58       9.4  T
   4    -34.7848184 -0.502736E-07  0.694E-04    3.58      30.0  T
   5    -34.7848184 -0.337457E-08  0.369E-04    3.58      56.5  T
     SCC iter.                  ...        0 min,  0.004 sec
     gradient                   ...        0 min,  0.001 sec
 * total energy  :   -34.1741548 Eh     change       -0.9770041E-04 Eh
   gradient norm :     0.0009687 Eh/α   predicted    -0.3387716E-04 ( -65.33%)
   displ. norm   :     0.1388623 α      lambda       -0.6219982E-04
   maximum displ.:     0.1337277 α      in ANC's #1, #2, #3, ...
 * RMSD in coord.:     0.5936238 α      energy gain  -0.1254597E-01 Eh

generating ANC from model Hessian ...
Using Lindh-Hessian (1995)
 Shifting diagonal of input Hessian by   9.758744983826170E-003
 Lowest  eigenvalues of input Hessian
    0.000000    0.000000    0.000000    0.000000    0.000000    0.000000
    0.010000    0.010108    0.010196    0.011092    0.011541    0.012068
    0.021104    0.023912    0.023936    0.029489    0.029575    0.034332
 Highest eigenvalues
    1.882621    1.883261    1.962818    1.963302    1.994383    1.994814
 

........................................................................
.............................. CYCLE   21 ..............................
........................................................................
   1    -34.7849753 -0.347850E+02  0.540E-02    3.57       0.0  T
   2    -34.7849754 -0.754943E-07  0.316E-02    3.57       1.0  T
   3    -34.7849754 -0.751949E-08  0.148E-03    3.57      14.1  T
   4    -34.7849754 -0.256027E-07  0.647E-04    3.57      32.2  T
   5    -34.7849754 -0.282707E-08  0.347E-04    3.57      60.1  T
     SCC iter.                  ...        0 min,  0.004 sec
     gradient                   ...        0 min,  0.001 sec
 * total energy  :   -34.1742442 Eh     change       -0.8947500E-04 Eh
   gradient norm :     0.0008798 Eh/α   predicted     0.0000000E+00 (-100.00%)
   displ. norm   :     0.0973883 α      lambda       -0.4363879E-04
   maximum displ.:     0.0965821 α      in ANC's #1, #5, #15, ...

........................................................................
.............................. CYCLE   22 ..............................
........................................................................
   1    -34.7849861 -0.347850E+02  0.334E-02    3.57       0.0  T
   2    -34.7849862 -0.407734E-07  0.196E-02    3.57       1.1  T
   3    -34.7849862  0.671835E-08  0.164E-03    3.57      12.7  T
   4    -34.7849862 -0.247618E-07  0.852E-04    3.57      24.5  T
   5    -34.7849862 -0.185538E-08  0.520E-04    3.57      40.1  T
     SCC iter.                  ...        0 min,  0.003 sec
     gradient                   ...        0 min,  0.001 sec
 * total energy  :   -34.1743065 Eh     change       -0.6228098E-04 Eh
   gradient norm :     0.0007187 Eh/α   predicted    -0.2193272E-04 ( -64.78%)
   displ. norm   :     0.0987378 α      lambda       -0.4168555E-04
   maximum displ.:     0.0958624 α      in ANC's #1, #5, #3, ...

........................................................................
.............................. CYCLE   23 ..............................
........................................................................
   1    -34.7850782 -0.347851E+02  0.400E-02    3.57       0.0  T
   2    -34.7850782 -0.413669E-07  0.235E-02    3.57       1.0  T
   3    -34.7850782  0.312720E-07  0.215E-03    3.57       9.7  T
   4    -34.7850783 -0.578959E-07  0.975E-04    3.57      21.4  T
   5    -34.7850783 -0.919819E-09  0.558E-04    3.57      37.4  T
     SCC iter.                  ...        0 min,  0.003 sec
     gradient                   ...        0 min,  0.001 sec
 * total energy  :   -34.1743669 Eh     change       -0.6038445E-04 Eh
   gradient norm :     0.0008215 Eh/α   predicted    -0.2094819E-04 ( -65.31%)
   displ. norm   :     0.0996195 α      lambda       -0.4116014E-04
   maximum displ.:     0.0973616 α      in ANC's #1, #5, #11, ...

........................................................................
.............................. CYCLE   24 ..............................
........................................................................
   1    -34.7850652 -0.347851E+02  0.391E-02    3.56       0.0  T
   2    -34.7850652 -0.467688E-07  0.231E-02    3.56       1.0  T
   3    -34.7850653 -0.125837E-07  0.208E-03    3.56      10.0  T
   4    -34.7850653 -0.183053E-07  0.154E-03    3.56      13.5  T
   5    -34.7850653 -0.459776E-08  0.617E-04    3.56      33.8  T
   6    -34.7850653 -0.286214E-09  0.321E-04    3.56      64.9  T
     SCC iter.                  ...        0 min,  0.004 sec
     gradient                   ...        0 min,  0.001 sec
 * total energy  :   -34.1744257 Eh     change       -0.5875070E-04 Eh
   gradient norm :     0.0007688 Eh/α   predicted    -0.2069097E-04 ( -64.78%)
   displ. norm   :     0.0971174 α      lambda       -0.3802772E-04
   maximum displ.:     0.0944008 α      in ANC's #1, #5, #2, ...

........................................................................
.............................. CYCLE   25 ..............................
........................................................................
   1    -34.7853111 -0.347853E+02  0.381E-02    3.56       0.0  T
   2    -34.7853111 -0.643851E-07  0.222E-02    3.56       1.0  T
   3    -34.7853111  0.465969E-07  0.269E-03    3.56       7.7  T
   4    -34.7853111 -0.661715E-07  0.877E-04    3.56      23.8  T
   5    -34.7853111 -0.628000E-08  0.521E-04    3.56      40.0  T
     SCC iter.                  ...        0 min,  0.003 sec
     gradient                   ...        0 min,  0.001 sec
 * total energy  :   -34.1744808 Eh     change       -0.5516963E-04 Eh
   gradient norm :     0.0007175 Eh/α   predicted    -0.1909384E-04 ( -65.39%)
   displ. norm   :     0.0936059 α      lambda       -0.3532009E-04
   maximum displ.:     0.0917672 α      in ANC's #1, #5, #2, ...

........................................................................
.............................. CYCLE   26 ..............................
........................................................................
   1    -34.7853554 -0.347854E+02  0.343E-02    3.56       0.0  T
   2    -34.7853555 -0.568617E-07  0.200E-02    3.56       1.0  T
   3    -34.7853554  0.917820E-07  0.331E-03    3.56       6.3  T
   4    -34.7853555 -0.116664E-06  0.981E-04    3.56      21.2  T
   5    -34.7853555 -0.484291E-08  0.655E-04    3.56      31.8  T
     SCC iter.                  ...        0 min,  0.003 sec
     gradient                   ...        0 min,  0.001 sec
 * total energy  :   -34.1745324 Eh     change       -0.5155777E-04 Eh
   gradient norm :     0.0006110 Eh/α   predicted    -0.1773351E-04 ( -65.60%)
   displ. norm   :     0.0895155 α      lambda       -0.3284339E-04
   maximum displ.:     0.0878944 α      in ANC's #1, #2, #3, ...

........................................................................
.............................. CYCLE   27 ..............................
........................................................................
   1    -34.7854044 -0.347854E+02  0.302E-02    3.55       0.0  T
   2    -34.7854045 -0.521536E-07  0.177E-02    3.55       1.2  T
   3    -34.7854044  0.599203E-07  0.280E-03    3.55       7.4  T
   4    -34.7854045 -0.794101E-07  0.942E-04    3.55      22.1  T
   5    -34.7854045 -0.392829E-08  0.637E-04    3.55      32.7  T
     SCC iter.                  ...        0 min,  0.003 sec
     gradient                   ...        0 min,  0.001 sec
 * total energy  :   -34.1745799 Eh     change       -0.4750999E-04 Eh
   gradient norm :     0.0006116 Eh/α   predicted    -0.1648110E-04 ( -65.31%)
   displ. norm   :     0.0863132 α      lambda       -0.3062781E-04
   maximum displ.:     0.0843460 α      in ANC's #1, #2, #3, ...

........................................................................
.............................. CYCLE   28 ..............................
........................................................................
   1    -34.7855413 -0.347855E+02  0.289E-02    3.55       0.0  T
   2    -34.7855414 -0.473053E-07  0.166E-02    3.55       1.3  T
   3    -34.7855414  0.303569E-07  0.218E-03    3.55       9.6  T
   4    -34.7855414 -0.441537E-07  0.983E-04    3.55      21.2  T
   5    -34.7855414 -0.363355E-08  0.457E-04    3.55      45.6  T
     SCC iter.                  ...        0 min,  0.003 sec
     gradient                   ...        0 min,  0.001 sec
 * total energy  :   -34.1746237 Eh     change       -0.4378216E-04 Eh
   gradient norm :     0.0006046 Eh/α   predicted    -0.1536827E-04 ( -64.90%)
   displ. norm   :     0.0833162 α      lambda       -0.2830771E-04
   maximum displ.:     0.0812009 α      in ANC's #1, #2, #3, ...

........................................................................
.............................. CYCLE   29 ..............................
........................................................................
   1    -34.7856252 -0.347856E+02  0.282E-02    3.54       0.0  T
   2    -34.7856252 -0.371263E-07  0.166E-02    3.54       1.3  T
   3    -34.7856252  0.640950E-08  0.257E-03    3.54       8.1  T
   4    -34.7856253 -0.328119E-07  0.158E-03    3.54      13.2  T
   5    -34.7856253 -0.348106E-08  0.104E-03    3.54      20.0  T
   6    -34.7856253  0.189232E-09  0.809E-04    3.54      25.8  T
   7    -34.7856253 -0.218439E-08  0.227E-04    3.54      92.1  T
     SCC iter.                  ...        0 min,  0.004 sec
     gradient                   ...        0 min,  0.001 sec
 * total energy  :   -34.1746641 Eh     change       -0.4042364E-04 Eh
   gradient norm :     0.0005762 Eh/α   predicted    -0.1419967E-04 ( -64.87%)
   displ. norm   :     0.0814660 α      lambda       -0.2584135E-04
   maximum displ.:     0.0786594 α      in ANC's #1, #2, #3, ...

........................................................................
.............................. CYCLE   30 ..............................
........................................................................
   1    -34.7856407 -0.347856E+02  0.288E-02    3.54       0.0  T
   2    -34.7856407 -0.270867E-07  0.169E-02    3.54       1.2  T
   3    -34.7856407  0.780701E-08  0.149E-03    3.54      14.0  T
   4    -34.7856407 -0.199894E-07  0.701E-04    3.54      29.8  T
   5    -34.7856407 -0.165534E-08  0.480E-04    3.54      43.5  T
     SCC iter.                  ...        0 min,  0.003 sec
     gradient                   ...        0 min,  0.001 sec
 * total energy  :   -34.1747018 Eh     change       -0.3766702E-04 Eh
   gradient norm :     0.0005190 Eh/α   predicted    -0.1295972E-04 ( -65.59%)
   displ. norm   :     0.0810898 α      lambda       -0.2450538E-04
   maximum displ.:     0.0778322 α      in ANC's #1, #2, #3, ...

........................................................................
.............................. CYCLE   31 ..............................
........................................................................
   1    -34.7857400 -0.347857E+02  0.293E-02    3.54       0.0  T
   2    -34.7857400 -0.376351E-07  0.171E-02    3.54       1.2  T
   3    -34.7857400  0.117077E-07  0.166E-03    3.54      12.5  T
   4    -34.7857400 -0.226314E-07  0.607E-04    3.54      34.4  T
   5    -34.7857401 -0.271444E-08  0.345E-04    3.54      60.4  T
     SCC iter.                  ...        0 min,  0.003 sec
     gradient                   ...        0 min,  0.001 sec
 * total energy  :   -34.1747373 Eh     change       -0.3558098E-04 Eh
   gradient norm :     0.0004824 Eh/α   predicted    -0.1229166E-04 ( -65.45%)
   displ. norm   :     0.0797592 α      lambda       -0.2287840E-04
   maximum displ.:     0.0762193 α      in ANC's #1, #3, #2, ...

........................................................................
.............................. CYCLE   32 ..............................
........................................................................
   1    -34.7858208 -0.347858E+02  0.289E-02    3.53       0.0  T
   2    -34.7858208 -0.273612E-07  0.169E-02    3.53       1.2  T
   3    -34.7858208  0.111570E-07  0.144E-03    3.53      14.4  T
   4    -34.7858208 -0.224042E-07  0.563E-04    3.53      37.0  T
   5    -34.7858208 -0.147409E-08  0.321E-04    3.53      64.9  T
     SCC iter.                  ...        0 min,  0.003 sec
     gradient                   ...        0 min,  0.001 sec
 * total energy  :   -34.1747706 Eh     change       -0.3325086E-04 Eh
   gradient norm :     0.0004618 Eh/α   predicted    -0.1147563E-04 ( -65.49%)
   displ. norm   :     0.0771639 α      lambda       -0.2102423E-04
   maximum displ.:     0.0736982 α      in ANC's #1, #3, #2, ...

........................................................................
.............................. CYCLE   33 ..............................
........................................................................
   1    -34.7858642 -0.347859E+02  0.279E-02    3.53       0.0  T
   2    -34.7858643 -0.237592E-07  0.163E-02    3.53       1.3  T
   3    -34.7858643  0.400148E-08  0.124E-03    3.53      16.9  T
   4    -34.7858643 -0.141196E-07  0.476E-04    3.53      43.8  T
   5    -34.7858643 -0.822475E-09  0.268E-04    3.53      77.9  T
     SCC iter.                  ...        0 min,  0.003 sec
     gradient                   ...        0 min,  0.001 sec
 * total energy  :   -34.1748013 Eh     change       -0.3066135E-04 Eh
   gradient norm :     0.0004203 Eh/α   predicted    -0.1054222E-04 ( -65.62%)
   displ. norm   :     0.0739270 α      lambda       -0.1921059E-04
   maximum displ.:     0.0707353 α      in ANC's #1, #3, #2, ...

........................................................................
.............................. CYCLE   34 ..............................
........................................................................
   1    -34.7859385 -0.347859E+02  0.257E-02    3.53       0.0  T
   2    -34.7859385 -0.208421E-07  0.150E-02    3.53       1.4  T
   3    -34.7859385  0.135214E-08  0.107E-03    3.53      19.5  T
   4    -34.7859385 -0.102107E-07  0.476E-04    3.53      43.8  T
   5    -34.7859385 -0.697739E-09  0.283E-04    3.53      73.8  T
     SCC iter.                  ...        0 min,  0.003 sec
     gradient                   ...        0 min,  0.001 sec
 * total energy  :   -34.1748293 Eh     change       -0.2804804E-04 Eh
   gradient norm :     0.0004031 Eh/α   predicted    -0.9630613E-05 ( -65.66%)
   displ. norm   :     0.0707012 α      lambda       -0.1754521E-04
   maximum displ.:     0.0677033 α      in ANC's #1, #3, #2, ...

........................................................................
.............................. CYCLE   35 ..............................
........................................................................
   1    -34.7860244 -0.347860E+02  0.244E-02    3.52       0.0  T
   2    -34.7860244 -0.217528E-07  0.143E-02    3.52       1.5  T
   3    -34.7860244  0.318055E-08  0.110E-03    3.52      18.9  T
   4    -34.7860244 -0.106629E-07  0.442E-04    3.52      47.2  T
   5    -34.7860244 -0.105889E-08  0.221E-04    3.52      94.5  T
     SCC iter.                  ...        0 min,  0.004 sec
     gradient                   ...        0 min,  0.001 sec
 * total energy  :   -34.1748549 Eh     change       -0.2558377E-04 Eh
   gradient norm :     0.0003882 Eh/α   predicted    -0.8794333E-05 ( -65.63%)
   displ. norm   :     0.0673580 α      lambda       -0.1593970E-04
   maximum displ.:     0.0645479 α      in ANC's #1, #3, #2, ...

........................................................................
.............................. CYCLE   36 ..............................
........................................................................
   1    -34.7860134 -0.347860E+02  0.231E-02    3.52       0.0  T
   2    -34.7860135 -0.148274E-07  0.135E-02    3.52       1.5  T
   3    -34.7860135  0.123990E-10  0.911E-04    3.52      22.9  T
   4    -34.7860135 -0.737161E-08  0.468E-04    3.52      44.6  T
     SCC iter.                  ...        0 min,  0.003 sec
     gradient                   ...        0 min,  0.001 sec
 * total energy  :   -34.1748781 Eh     change       -0.2319501E-04 Eh
   gradient norm :     0.0003703 Eh/α   predicted    -0.7987943E-05 ( -65.56%)
   displ. norm   :     0.0638450 α      lambda       -0.1442976E-04
   maximum displ.:     0.0614483 α      in ANC's #1, #3, #2, ...

........................................................................
.............................. CYCLE   37 ..............................
........................................................................
   1    -34.7861446 -0.347861E+02  0.213E-02    3.52       0.0  T
   2    -34.7861446 -0.215532E-07  0.124E-02    3.52       1.7  T
   3    -34.7861446  0.147971E-07  0.149E-03    3.52      14.0  T
   4    -34.7861446 -0.210199E-07  0.475E-04    3.52      43.9  T
   5    -34.7861446 -0.206327E-08  0.197E-04    3.52     106.0  T
     SCC iter.                  ...        0 min,  0.004 sec
     gradient                   ...        0 min,  0.001 sec
 * total energy  :   -34.1748991 Eh     change       -0.2098325E-04 Eh
   gradient norm :     0.0003509 Eh/α   predicted    -0.7229923E-05 ( -65.54%)
   displ. norm   :     0.0600610 α      lambda       -0.1291755E-04
   maximum displ.:     0.0579712 α      in ANC's #1, #3, #2, ...

........................................................................
.............................. CYCLE   38 ..............................
........................................................................
   1    -34.7861311 -0.347861E+02  0.207E-02    3.52       0.0  T
   2    -34.7861311 -0.120945E-07  0.122E-02    3.52       1.7  T
   3    -34.7861311  0.147035E-08  0.874E-04    3.52      23.9  T
   4    -34.7861311 -0.751719E-08  0.432E-04    3.52      48.3  T
     SCC iter.                  ...        0 min,  0.003 sec
     gradient                   ...        0 min,  0.001 sec
 * total energy  :   -34.1749179 Eh     change       -0.1880096E-04 Eh
   gradient norm :     0.0003386 Eh/α   predicted    -0.6471064E-05 ( -65.58%)
   displ. norm   :     0.0567791 α      lambda       -0.1167547E-04
   maximum displ.:     0.0551020 α      in ANC's #1, #3, #2, ...

........................................................................
.............................. CYCLE   39 ..............................
........................................................................
   1    -34.7862027 -0.347862E+02  0.190E-02    3.51       0.0  T
   2    -34.7862027 -0.135760E-07  0.111E-02    3.51       1.9  T
   3    -34.7862027  0.929576E-08  0.115E-03    3.51      18.1  T
   4    -34.7862027 -0.144449E-07  0.368E-04    3.51      56.7  T
   5    -34.7862027 -0.100574E-08  0.180E-04    3.51     115.7  T
     SCC iter.                  ...        0 min,  0.004 sec
     gradient                   ...        0 min,  0.001 sec
 * total energy  :   -34.1749349 Eh     change       -0.1702414E-04 Eh
   gradient norm :     0.0003180 Eh/α   predicted    -0.5848424E-05 ( -65.65%)
   displ. norm   :     0.0533460 α      lambda       -0.1051831E-04
   maximum displ.:     0.0520851 α      in ANC's #1, #3, #5, ...

........................................................................
.............................. CYCLE   40 ..............................
........................................................................
   1    -34.7862349 -0.347862E+02  0.182E-02    3.51       0.0  T
   2    -34.7862349 -0.985826E-08  0.106E-02    3.51       2.0  T
   3    -34.7862349  0.533056E-09  0.726E-04    3.51      28.7  T
   4    -34.7862349 -0.500535E-08  0.342E-04    3.51      61.1  T
     SCC iter.                  ...        0 min,  0.003 sec
     gradient                   ...        0 min,  0.001 sec
 * total energy  :   -34.1749502 Eh     change       -0.1533799E-04 Eh
   gradient norm :     0.0003079 Eh/α   predicted    -0.5267964E-05 ( -65.65%)
   displ. norm   :     0.0503228 α      lambda       -0.9540931E-05
   maximum displ.:     0.0493616 α      in ANC's #1, #3, #5, ...

........................................................................
.............................. CYCLE   41 ..............................
........................................................................
   1    -34.7862862 -0.347863E+02  0.172E-02    3.51       0.0  T
   2    -34.7862862 -0.102619E-07  0.100E-02    3.51       2.1  T
   3    -34.7862862  0.439064E-08  0.873E-04    3.51      23.9  T
   4    -34.7862862 -0.830939E-08  0.300E-04    3.51      69.5  T
     SCC iter.                  ...        0 min,  0.003 sec
     gradient                   ...        0 min,  0.001 sec
 * total energy  :   -34.1749642 Eh     change       -0.1393872E-04 Eh
   gradient norm :     0.0003004 Eh/α   predicted    -0.4777572E-05 ( -65.72%)
   displ. norm   :     0.0478967 α      lambda       -0.8729986E-05
   maximum displ.:     0.0471180 α      in ANC's #1, #3, #5, ...

........................................................................
.............................. CYCLE   42 ..............................
........................................................................
   1    -34.7863025 -0.347863E+02  0.161E-02    3.51       0.0  T
   2    -34.7863025 -0.734926E-08  0.945E-03    3.51       2.2  T
   3    -34.7863025  0.130613E-08  0.667E-04    3.51      31.3  T
   4    -34.7863025 -0.493953E-08  0.294E-04    3.51      71.0  T
     SCC iter.                  ...        0 min,  0.003 sec
     gradient                   ...        0 min,  0.001 sec
 * total energy  :   -34.1749769 Eh     change       -0.1276875E-04 Eh
   gradient norm :     0.0002742 Eh/α   predicted    -0.4370523E-05 ( -65.77%)
   displ. norm   :     0.0455422 α      lambda       -0.7968738E-05
   maximum displ.:     0.0449333 α      in ANC's #1, #3, #5, ...
 * RMSD in coord.:     0.3429046 α      energy gain  -0.8221752E-03 Eh

generating ANC from model Hessian ...
Using Lindh-Hessian (1995)
 Shifting diagonal of input Hessian by   9.748698291901876E-003
 Lowest  eigenvalues of input Hessian
    0.000000    0.000000    0.000000    0.000000    0.000000    0.000000
    0.010000    0.010099    0.010210    0.011064    0.011673    0.012077
    0.021165    0.023916    0.023943    0.029504    0.029666    0.034369
 Highest eigenvalues
    1.883914    1.884057    1.963399    1.963516    1.995886    1.995941
 

........................................................................
.............................. CYCLE   43 ..............................
........................................................................
   1    -34.7863539 -0.347864E+02  0.154E-02    3.51       0.0  T
   2    -34.7863539 -0.771380E-08  0.901E-03    3.51       2.3  T
   3    -34.7863539  0.248566E-08  0.729E-04    3.51      28.6  T
   4    -34.7863539 -0.553525E-08  0.272E-04    3.51      76.6  T
     SCC iter.                  ...        0 min,  0.003 sec
     gradient                   ...        0 min,  0.001 sec
 * total energy  :   -34.1749886 Eh     change       -0.1165800E-04 Eh
   gradient norm :     0.0002659 Eh/α   predicted     0.0000000E+00 (-100.00%)
   displ. norm   :     0.0380649 α      lambda       -0.1343445E-06
   maximum displ.:     0.0380143 α      in ANC's #1, #2, #33, ...

........................................................................
.............................. CYCLE   44 ..............................
........................................................................
   1    -34.7863419 -0.347863E+02  0.111E-02    3.50       0.0  T
   2    -34.7863419 -0.758659E-08  0.651E-03    3.50       3.2  T
   3    -34.7863419  0.119659E-07  0.126E-03    3.50      16.5  T
   4    -34.7863419 -0.159182E-07  0.530E-04    3.50      39.3  T
   5    -34.7863419 -0.666560E-09  0.344E-04    3.50      60.6  T
     SCC iter.                  ...        0 min,  0.003 sec
     gradient                   ...        0 min,  0.001 sec
 * total energy  :   -34.1749980 Eh     change       -0.9421829E-05 Eh
   gradient norm :     0.0002632 Eh/α   predicted    -0.3233888E-05 ( -65.68%)
   displ. norm   :     0.0378124 α      lambda       -0.6197546E-05
   maximum displ.:     0.0372481 α      in ANC's #1, #5, #2, ...

........................................................................
.............................. CYCLE   45 ..............................
........................................................................
   1    -34.7864131 -0.347864E+02  0.136E-02    3.50       0.0  T
   2    -34.7864131 -0.693629E-08  0.798E-03    3.50       2.6  T
   3    -34.7864131 -0.167083E-08  0.656E-04    3.50      31.8  T
   4    -34.7864131 -0.135889E-08  0.438E-04    3.50      47.6  T
     SCC iter.                  ...        0 min,  0.003 sec
     gradient                   ...        0 min,  0.001 sec
 * total energy  :   -34.1750069 Eh     change       -0.8890860E-05 Eh
   gradient norm :     0.0002940 Eh/α   predicted    -0.3101475E-05 ( -65.12%)
   displ. norm   :     0.0369791 α      lambda       -0.5876625E-05
   maximum displ.:     0.0362466 α      in ANC's #1, #2, #5, ...

........................................................................
.............................. CYCLE   46 ..............................
........................................................................
   1    -34.7864292 -0.347864E+02  0.129E-02    3.50       0.0  T
   2    -34.7864292 -0.514972E-08  0.756E-03    3.50       2.8  T
   3    -34.7864292  0.271744E-08  0.761E-04    3.50      27.4  T
   4    -34.7864292 -0.612221E-08  0.393E-04    3.50      53.0  T
     SCC iter.                  ...        0 min,  0.002 sec
     gradient                   ...        0 min,  0.001 sec
 * total energy  :   -34.1750154 Eh     change       -0.8483183E-05 Eh
   gradient norm :     0.0002487 Eh/α   predicted    -0.2943848E-05 ( -65.30%)
   displ. norm   :     0.0371698 α      lambda       -0.5549694E-05
   maximum displ.:     0.0358419 α      in ANC's #1, #2, #5, ...

........................................................................
.............................. CYCLE   47 ..............................
........................................................................
   1    -34.7864309 -0.347864E+02  0.133E-02    3.50       0.0  T
   2    -34.7864309 -0.463392E-08  0.780E-03    3.50       2.7  T
   3    -34.7864309 -0.923031E-09  0.448E-04    3.50      46.5  T
   4    -34.7864309 -0.168518E-08  0.265E-04    3.50      78.8  T
     SCC iter.                  ...        0 min,  0.002 sec
     gradient                   ...        0 min,  0.001 sec
 * total energy  :   -34.1750235 Eh     change       -0.8065511E-05 Eh
   gradient norm :     0.0002364 Eh/α   predicted    -0.2777571E-05 ( -65.56%)
   displ. norm   :     0.0376040 α      lambda       -0.5291653E-05
   maximum displ.:     0.0357730 α      in ANC's #1, #2, #5, ...

........................................................................
.............................. CYCLE   48 ..............................
........................................................................
   1    -34.7864405 -0.347864E+02  0.134E-02    3.50       0.0  T
   2    -34.7864406 -0.547955E-08  0.783E-03    3.50       2.7  T
   3    -34.7864406 -0.116685E-09  0.475E-04    3.50      43.9  T
   4    -34.7864406 -0.206168E-08  0.202E-04    3.50     103.2  T
     SCC iter.                  ...        0 min,  0.003 sec
     gradient                   ...        0 min,  0.001 sec
 * total energy  :   -34.1750312 Eh     change       -0.7768627E-05 Eh
   gradient norm :     0.0002163 Eh/α   predicted    -0.2648803E-05 ( -65.90%)
   displ. norm   :     0.0388196 α      lambda       -0.5176705E-05
   maximum displ.:     0.0361978 α      in ANC's #1, #2, #5, ...

........................................................................
.............................. CYCLE   49 ..............................
........................................................................
   1    -34.7864791 -0.347865E+02  0.140E-02    3.50       0.0  T
   2    -34.7864791 -0.549493E-08  0.822E-03    3.50       2.5  T
   3    -34.7864791  0.938272E-10  0.471E-04    3.50      44.2  T
   4    -34.7864791 -0.256625E-08  0.183E-04    3.50     114.2  T
     SCC iter.                  ...        0 min,  0.003 sec
     gradient                   ...        0 min,  0.001 sec
 * total energy  :   -34.1750388 Eh     change       -0.7590869E-05 Eh
   gradient norm :     0.0002106 Eh/α   predicted    -0.2594219E-05 ( -65.82%)
   displ. norm   :     0.0408509 α      lambda       -0.5202242E-05
   maximum displ.:     0.0370877 α      in ANC's #1, #2, #5, ...

........................................................................
.............................. CYCLE   50 ..............................
........................................................................
   1    -34.7865104 -0.347865E+02  0.150E-02    3.49       0.0  T
   2    -34.7865104 -0.770169E-08  0.874E-03    3.49       2.4  T
   3    -34.7865104  0.456728E-08  0.770E-04    3.49      27.1  T
   4    -34.7865104 -0.792841E-08  0.333E-04    3.49      62.6  T
     SCC iter.                  ...        0 min,  0.003 sec
     gradient                   ...        0 min,  0.001 sec
 * total energy  :   -34.1750463 Eh     change       -0.7466510E-05 Eh
   gradient norm :     0.0002368 Eh/α   predicted    -0.2604007E-05 ( -65.12%)
   displ. norm   :     0.0432505 α      lambda       -0.5250776E-05
   maximum displ.:     0.0381775 α      in ANC's #1, #2, #7, ...

........................................................................
.............................. CYCLE   51 ..............................
........................................................................
   1    -34.7865213 -0.347865E+02  0.158E-02    3.49       0.0  T
   2    -34.7865213 -0.851269E-08  0.926E-03    3.49       2.3  T
   3    -34.7865213  0.514307E-08  0.885E-04    3.49      23.6  T
   4    -34.7865213 -0.901985E-08  0.337E-04    3.49      61.9  T
     SCC iter.                  ...        0 min,  0.002 sec
     gradient                   ...        0 min,  0.001 sec
 * total energy  :   -34.1750538 Eh     change       -0.7558544E-05 Eh
   gradient norm :     0.0002033 Eh/α   predicted    -0.2627804E-05 ( -65.23%)
   displ. norm   :     0.0479800 α      lambda       -0.5351345E-05
   maximum displ.:     0.0408920 α      in ANC's #1, #2, #5, ...

........................................................................
.............................. CYCLE   52 ..............................
........................................................................
   1    -34.7865395 -0.347865E+02  0.183E-02    3.49       0.0  T
   2    -34.7865395 -0.996524E-08  0.107E-02    3.49       1.9  T
   3    -34.7865395  0.402671E-08  0.870E-04    3.49      24.0  T
   4    -34.7865395 -0.857825E-08  0.352E-04    3.49      59.2  T
     SCC iter.                  ...        0 min,  0.003 sec
     gradient                   ...        0 min,  0.001 sec
 * total energy  :   -34.1750616 Eh     change       -0.7766165E-05 Eh
   gradient norm :     0.0002012 Eh/α   predicted    -0.2680084E-05 ( -65.49%)
   displ. norm   :     0.0558968 α      lambda       -0.5771471E-05
   maximum displ.:     0.0458489 α      in ANC's #1, #2, #5, ...

........................................................................
.............................. CYCLE   53 ..............................
........................................................................
   1    -34.7865670 -0.347866E+02  0.220E-02    3.49       0.0  T
   2    -34.7865670 -0.118875E-07  0.129E-02    3.49       1.6  T
   3    -34.7865670 -0.276869E-08  0.627E-04    3.49      33.3  T
   4    -34.7865670 -0.320292E-08  0.337E-04    3.49      61.9  T
     SCC iter.                  ...        0 min,  0.003 sec
     gradient                   ...        0 min,  0.001 sec
 * total energy  :   -34.1750700 Eh     change       -0.8440455E-05 Eh
   gradient norm :     0.0001787 Eh/α   predicted    -0.2891120E-05 ( -65.75%)
   displ. norm   :     0.0689312 α      lambda       -0.6634359E-05
   maximum displ.:     0.0544123 α      in ANC's #1, #2, #5, ...

........................................................................
.............................. CYCLE   54 ..............................
........................................................................
   1    -34.7865866 -0.347866E+02  0.278E-02    3.49       0.0  T
   2    -34.7865866 -0.196851E-07  0.163E-02    3.49       1.3  T
   3    -34.7865866 -0.362429E-08  0.785E-04    3.49      26.5  T
   4    -34.7865866 -0.568161E-08  0.422E-04    3.49      49.4  T
     SCC iter.                  ...        0 min,  0.003 sec
     gradient                   ...        0 min,  0.001 sec
 * total energy  :   -34.1750797 Eh     change       -0.9635508E-05 Eh
   gradient norm :     0.0001777 Eh/α   predicted    -0.3324493E-05 ( -65.50%)
   displ. norm   :     0.0902782 α      lambda       -0.8093657E-05
   maximum displ.:     0.0689425 α      in ANC's #1, #2, #3, ...

........................................................................
.............................. CYCLE   55 ..............................
........................................................................
   1    -34.7865930 -0.347866E+02  0.371E-02    3.48       0.0  T
   2    -34.7865930 -0.350433E-07  0.217E-02    3.48       1.0  T
   3    -34.7865930 -0.753040E-08  0.118E-03    3.48      17.7  T
   4    -34.7865930 -0.968122E-08  0.630E-04    3.48      33.1  T
   5    -34.7865930 -0.105932E-08  0.367E-04    3.48      56.8  T
     SCC iter.                  ...        0 min,  0.004 sec
     gradient                   ...        0 min,  0.001 sec
 * total energy  :   -34.1750913 Eh     change       -0.1163662E-04 Eh
   gradient norm :     0.0001939 Eh/α   predicted    -0.4062275E-05 ( -65.09%)
   displ. norm   :     0.1230968 α      lambda       -0.1018863E-04
   maximum displ.:     0.0915403 α      in ANC's #1, #2, #3, ...

........................................................................
.............................. CYCLE   56 ..............................
........................................................................
   1    -34.7865887 -0.347866E+02  0.510E-02    3.48       0.0  T
   2    -34.7865888 -0.631404E-07  0.299E-02    3.48       1.0  T
   3    -34.7865888 -0.211831E-07  0.125E-03    3.48      16.7  T
   4    -34.7865888 -0.977067E-08  0.727E-04    3.48      28.7  T
   5    -34.7865888 -0.166050E-08  0.406E-04    3.48      51.3  T
     SCC iter.                  ...        0 min,  0.004 sec
     gradient                   ...        0 min,  0.001 sec
 * total energy  :   -34.1751055 Eh     change       -0.1416851E-04 Eh
   gradient norm :     0.0002356 Eh/α   predicted    -0.5132025E-05 ( -63.78%)
   displ. norm   :     0.1623445 α      lambda       -0.1170313E-04
   maximum displ.:     0.1186795 α      in ANC's #1, #2, #3, ...

........................................................................
.............................. CYCLE   57 ..............................
........................................................................
   1    -34.7865966 -0.347866E+02  0.672E-02    3.47       0.0  T
   2    -34.7865967 -0.115632E-06  0.394E-02    3.47       1.0  T
   3    -34.7865968 -0.336015E-07  0.172E-03    3.47      12.1  T
   4    -34.7865968 -0.195050E-07  0.876E-04    3.47      23.8  T
   5    -34.7865968 -0.198160E-08  0.420E-04    3.47      49.7  T
     SCC iter.                  ...        0 min,  0.004 sec
     gradient                   ...        0 min,  0.001 sec
 * total energy  :   -34.1751207 Eh     change       -0.1522690E-04 Eh
   gradient norm :     0.0002551 Eh/α   predicted    -0.5924676E-05 ( -61.09%)
   displ. norm   :     0.1849838 α      lambda       -0.1010327E-04
   maximum displ.:     0.1344367 α      in ANC's #1, #2, #3, ...

........................................................................
.............................. CYCLE   58 ..............................
........................................................................
   1    -34.7865822 -0.347866E+02  0.770E-02    3.47       0.0  T
   2    -34.7865824 -0.142772E-06  0.451E-02    3.47       1.0  T
   3    -34.7865824 -0.462209E-07  0.175E-03    3.47      11.9  T
   4    -34.7865825 -0.221095E-07  0.986E-04    3.47      21.2  T
   5    -34.7865825 -0.277847E-08  0.440E-04    3.47      47.4  T
     SCC iter.                  ...        0 min,  0.006 sec
     gradient                   ...        0 min,  0.001 sec
 * total energy  :   -34.1751329 Eh     change       -0.1214123E-04 Eh
   gradient norm :     0.0003710 Eh/α   predicted    -0.5131822E-05 ( -57.73%)
   displ. norm   :     0.1927375 α      lambda       -0.7067696E-05
   maximum displ.:     0.1397122 α      in ANC's #1, #2, #3, ...

........................................................................
.............................. CYCLE   59 ..............................
........................................................................
   1    -34.7866417 -0.347866E+02  0.811E-02    3.46       0.0  T
   2    -34.7866418 -0.158567E-06  0.475E-02    3.46       1.0  T
   3    -34.7866419 -0.506016E-07  0.182E-03    3.46      11.4  T
   4    -34.7866419 -0.244761E-07  0.100E-03    3.46      20.8  T
   5    -34.7866419 -0.395248E-08  0.479E-04    3.46      43.5  T
   6    -34.7866419 -0.656748E-09  0.228E-04    3.46      91.4  T
     SCC iter.                  ...        0 min,  0.005 sec
     gradient                   ...        0 min,  0.001 sec
 * total energy  :   -34.1751404 Eh     change       -0.7530963E-05 Eh
   gradient norm :     0.0004001 Eh/α   predicted    -0.3592937E-05 ( -52.29%)
   displ. norm   :     0.1810484 α      lambda       -0.3727907E-05
   maximum displ.:     0.1308642 α      in ANC's #1, #2, #3, ...

........................................................................
.............................. CYCLE   60 ..............................
........................................................................
   1    -34.7867133 -0.347867E+02  0.767E-02    3.46       0.0  T
   2    -34.7867135 -0.136097E-06  0.449E-02    3.46       1.0  T
   3    -34.7867135 -0.444276E-07  0.166E-03    3.46      12.6  T
   4    -34.7867135 -0.195334E-07  0.947E-04    3.46      22.0  T
   5    -34.7867135 -0.407722E-08  0.469E-04    3.46      44.4  T
     SCC iter.                  ...        0 min,  0.004 sec
     gradient                   ...        0 min,  0.001 sec
 * total energy  :   -34.1751431 Eh     change       -0.2747708E-05 Eh
   gradient norm :     0.0004619 Eh/α   predicted    -0.1893464E-05 ( -31.09%)
   displ. norm   :     0.0268190 α      lambda       -0.6749275E-06
   maximum displ.:     0.0186116 α      in ANC's #1, #2, #3, ...

........................................................................
.............................. CYCLE   61 ..............................
........................................................................
   1    -34.7870590 -0.347871E+02  0.127E-02    3.46       0.0  T
   2    -34.7870590 -0.545034E-08  0.744E-03    3.46       2.8  T
   3    -34.7870590  0.119745E-07  0.101E-03    3.46      20.7  T
   4    -34.7870590 -0.152732E-07  0.217E-04    3.46      96.3  T
   5    -34.7870590 -0.141668E-09  0.124E-04    3.46     168.7  T
     SCC iter.                  ...        0 min,  0.003 sec
     gradient                   ...        0 min,  0.001 sec
 * total energy  :   -34.1751436 Eh     change       -0.4306507E-06 Eh
   gradient norm :     0.0001327 Eh/α   predicted    -0.3398323E-06 ( -21.09%)
   displ. norm   :     0.0079065 α      lambda        0.2434456E-06
   maximum displ.:     0.0073885 α      in ANC's #2, #5, #4, ...

   *** GEOMETRY OPTIMIZATION CONVERGED AFTER 61 ITERATIONS ***

------------------------------------------------------------------------
 total energy gain   :        -0.0135348 Eh       -8.4932 kcal/mol
 total RMSD          :         1.1763566 a0        0.6225 Å
 total power (kW/mol):        -0.5825500 (step)  -98.1916 (real)
------------------------------------------------------------------------

 ANCopt (total)                0 d,  0 h,  0 min,  0.362 sec
 optimizer setup                ...        0 min,  0.000 sec (  0.016%)
 model hessian                  ...        0 min,  0.006 sec (  1.744%)
 ANC generation                 ...        0 min,  0.001 sec (  0.312%)
 coordinate transformation      ...        0 min,  0.000 sec (  0.102%)
 single point calculation       ...        0 min,  0.347 sec ( 95.796%)
 optimization log               ...        0 min,  0.003 sec (  0.924%)
 hessian update                 ...        0 min,  0.001 sec (  0.166%)
 rational function              ...        0 min,  0.002 sec (  0.516%)

================
 final structure:
================
23
 xtb: 6.4.1 (afa7bdf)
C        -3.30650296309422   -1.91929205302768   -0.32186698807835
C        -1.94561877165378   -1.88804542359274   -0.58100620309383
C        -1.24281641104785   -0.69708725453306   -0.49026226989260
C        -1.89315758749616    0.47612360052844   -0.13902493978419
C        -3.25098665078430    0.41099356668008    0.10438752335007
C        -3.98008238539234   -0.75949680055921    0.03056643314493
H        -3.85345609309794   -2.84706189747252   -0.38839063412757
H        -1.42942603716418   -2.79678535638249   -0.85032152926885
H        -0.18228298323575   -0.67294244955852   -0.68823273156514
H        -1.34518124033051    1.40127383152247   -0.06032856231928
H        -5.03731189042304   -0.78483467763731    0.24071128749821
I        -4.29672341425786    2.24979265640415    0.60058893440231
C        -4.59464407591550    2.80176220526054   -1.47964546729440
C        -3.66758486006390    3.63239649541638   -2.07766840946277
C        -5.69163195658939    2.28688655458137   -2.14205821528196
C        -3.84873891535812    3.94488972228444   -3.41656129630361
H        -2.82860637250871    4.03357703489121   -1.53202341765544
C        -5.84962370637288    2.61316224081528   -3.48050140637090
H        -6.40916003152436    1.65308074656702   -1.64618180292314
C        -4.93309599725833    3.43720994557315   -4.11416280615275
H        -3.13719895406432    4.59012111215989   -3.90821914128008
H        -6.69657262034154    2.22124086182179   -4.02222529720943
H        -5.06729608202506    3.68913533825522   -5.15497306032965
 
 Bond Distances (Angstroems)
 ---------------------------
C1-C2=1.3857         C1-C6=1.3867         C1-H7=1.0790         C2-C1=1.3857         C2-C3=1.3858         C2-H8=1.0793         
C3-C2=1.3858         C3-C4=1.3866         C3-H9=1.0791         C4-C3=1.3866         C4-C5=1.3810         C4-H10=1.0781        
C5-C4=1.3810         C5-C6=1.3810         C5-I12=2.1728        C6-C1=1.3867         C6-C5=1.3810         C6-H11=1.0782        
H7-C1=1.0790         H8-C2=1.0793         H9-C3=1.0791         H10-C4=1.0781        H11-C6=1.0782        I12-C5=2.1728        
I12-C13=2.1727       C13-I12=2.1727       C13-C14=1.3810       C13-C15=1.3810       C14-C13=1.3810       C14-C16=1.3868       
C14-H17=1.0782       C15-C13=1.3810       C15-C18=1.3867       C15-H19=1.0782       C16-C14=1.3868       C16-C20=1.3857       
C16-H21=1.0790       H17-C14=1.0782       C18-C15=1.3867       C18-C20=1.3859       C18-H22=1.0791       H19-C15=1.0782       
C20-C16=1.3857       C20-C18=1.3859       C20-H23=1.0792       H21-C16=1.0790       H22-C18=1.0791       H23-C20=1.0792       
 C  H  Rav=1.0788 sigma=0.0005  Rmin=1.0781  Rmax=1.0793    10
 C  C  Rav=1.3845 sigma=0.0025  Rmin=1.3810  Rmax=1.3868    12
 I  C  Rav=2.1728 sigma=0.0000  Rmin=2.1727  Rmax=2.1728     2
 
 selected bond angles (degree)
 --------------------
C6-C1-C2=120.38                H7-C1-C2=120.38                H7-C1-C6=119.25                C3-C2-C1=120.34                
H8-C2-C1=119.83                H8-C2-C3=119.83                C4-C3-C2=120.39                H9-C3-C2=120.37                
H9-C3-C4=119.24                C5-C4-C3=117.77                H10-C4-C3=120.41               H10-C4-C5=121.83               
C6-C5-C4=123.34                I12-C5-C4=118.27               I12-C5-C6=118.39               C5-C6-C1=117.78                
H11-C6-C1=120.41               H11-C6-C5=121.82               
 
 selected dihedral angles (degree)
 ---------------------------------
C3-C2-C1-C6=  0.00            C3-C2-C1-H7=180.25            H8-C2-C1-C6=179.73            H8-C2-C1-H7=359.96            
C4-C3-C2-C1=  0.00            C4-C3-C2-H8=180.31            H9-C3-C2-C1=179.76            H9-C3-C2-H8=  0.05            
C5-C4-C3-C2=359.60            C5-C4-C3-H9=179.84            H10-C4-C3-C2=179.49           H10-C4-C3-H9=359.74           
C6-C5-C4-C3=  0.80            C6-C5-C4-H10=180.91           I12-C5-C4-C3=181.71           I12-C5-C4-H10=  1.82          
C5-C6-C1-C2=  0.34            C5-C6-C1-H7=180.11            H11-C6-C1-C2=180.54           H11-C6-C1-H7=  0.31           
C1-C6-C5-C4=359.23            C1-C6-C5-I12=178.32           H11-C6-C5-C4=179.03           H11-C6-C5-I12=358.12          
           -------------------------------------------------
          |                Final Singlepoint                |
           -------------------------------------------------

          ...................................................
          :                      SETUP                      :
          :.................................................:
          :  # basis functions                  68          :
          :  # atomic orbitals                  67          :
          :  # shells                           37          :
          :  # electrons                        64          :
          :  max. iterations                   250          :
          :  Hamiltonian                  GFN2-xTB          :
          :  restarted?                      false          :
          :  GBSA solvation                   true          :
          :  PC potential                    false          :
          :  electronic temp.          300.0000000     K    :
          :  accuracy                    1.0000000          :
          :  -> integral cutoff          0.2500000E+02      :
          :  -> integral neglect         0.1000000E-07      :
          :  -> SCF convergence          0.1000000E-05 Eh   :
          :  -> wf. convergence          0.1000000E-03 e    :
          :  Broyden damping             0.4000000          :
          ...................................................

 iter      E             dE          RMSdq      gap      omega  full diag
   1    -34.7870590 -0.347871E+02  0.762E-05    3.46       0.0  T
   2    -34.7870590 -0.115961E-10  0.560E-05    3.46     372.3  T
   3    -34.7870590 -0.286349E-11  0.460E-05    3.46     453.3  T

   *** convergence criteria satisfied after 3 iterations ***

         #    Occupation            Energy/Eh            Energy/eV
      -------------------------------------------------------------
         1        2.0000           -0.8167593             -22.2252
       ...           ...                  ...                  ...
        26        2.0000           -0.4728040             -12.8657
        27        2.0000           -0.4662869             -12.6883
        28        2.0000           -0.4653677             -12.6633
        29        2.0000           -0.4572593             -12.4427
        30        2.0000           -0.4545975             -12.3702
        31        2.0000           -0.4532979             -12.3349
        32        2.0000           -0.4529272             -12.3248 (HOMO)
        33                         -0.3259182              -8.8687 (LUMO)
        34                         -0.2950862              -8.0297
        35                         -0.2722191              -7.4075
        36                         -0.2715915              -7.3904
        37                         -0.2693109              -7.3283
       ...                                ...                  ...
        67                          0.6183783              16.8269
      -------------------------------------------------------------
                  HL-Gap            0.1270090 Eh            3.4561 eV
             Fermi-level           -0.3894227 Eh          -10.5967 eV

 SCC (total)                   0 d,  0 h,  0 min,  0.004 sec
 SCC setup                      ...        0 min,  0.000 sec (  2.699%)
 Dispersion                     ...        0 min,  0.000 sec (  1.605%)
 classical contributions        ...        0 min,  0.000 sec (  0.223%)
 integral evaluation            ...        0 min,  0.001 sec ( 15.441%)
 iterations                     ...        0 min,  0.002 sec ( 49.920%)
 molecular gradient             ...        0 min,  0.001 sec ( 27.056%)
 printout                       ...        0 min,  0.000 sec (  2.540%)

         :::::::::::::::::::::::::::::::::::::::::::::::::::::
         ::                     SUMMARY                     ::
         :::::::::::::::::::::::::::::::::::::::::::::::::::::
         :: total energy             -34.175143565141 Eh    ::
         :: total w/o Gsasa/hb       -34.157871463844 Eh    ::
         :: gradient norm              0.000134190627 Eh/a0 ::
         :: HOMO-LUMO gap              3.456090662457 eV    ::
         ::.................................................::
         :: SCC energy               -34.787058965498 Eh    ::
         :: -> isotropic ES            0.074553167977 Eh    ::
         :: -> anisotropic ES         -0.012704249026 Eh    ::
         :: -> anisotropic XC          0.024589268378 Eh    ::
         :: -> dispersion             -0.022871760339 Eh    ::
         :: -> Gsolv                  -0.074419646300 Eh    ::
         ::    -> Gelec               -0.057147545003 Eh    ::
         ::    -> Gsasa               -0.021712930470 Eh    ::
         ::    -> Ghb                  0.000000000000 Eh    ::
         ::    -> Gshift               0.004440829173 Eh    ::
         :: repulsion energy           0.611630659239 Eh    ::
         :: add. restraining           0.000000000000 Eh    ::
         :: total charge               1.000000000000 e     ::
         :::::::::::::::::::::::::::::::::::::::::::::::::::::

           -------------------------------------------------
          |                Property Printout                |
           -------------------------------------------------

    * Orbital Energies and Occupations

         #    Occupation            Energy/Eh            Energy/eV
      -------------------------------------------------------------
         1        2.0000           -0.8167593             -22.2252
       ...           ...                  ...                  ...
        20        2.0000           -0.5237290             -14.2514
        21        2.0000           -0.5231151             -14.2347
        22        2.0000           -0.5220679             -14.2062
        23        2.0000           -0.5211795             -14.1820
        24        2.0000           -0.4881862             -13.2842
        25        2.0000           -0.4733522             -12.8806
        26        2.0000           -0.4728040             -12.8657
        27        2.0000           -0.4662869             -12.6883
        28        2.0000           -0.4653677             -12.6633
        29        2.0000           -0.4572593             -12.4427
        30        2.0000           -0.4545975             -12.3702
        31        2.0000           -0.4532979             -12.3349
        32        2.0000           -0.4529272             -12.3248 (HOMO)
        33                         -0.3259182              -8.8687 (LUMO)
        34                         -0.2950862              -8.0297
        35                         -0.2722191              -7.4075
        36                         -0.2715915              -7.3904
        37                         -0.2693109              -7.3283
        38                         -0.2628088              -7.1514
        39                         -0.1497888              -4.0760
        40                         -0.1396401              -3.7998
        41                         -0.0687158              -1.8699
        42                         -0.0683244              -1.8592
        43                         -0.0029255              -0.0796
       ...                                ...                  ...
        67                          0.6183783              16.8269
      -------------------------------------------------------------
                  HL-Gap            0.1270090 Eh            3.4561 eV
             Fermi-level           -0.3894227 Eh          -10.5967 eV

     #   Z          covCN         q      C6AA      α(0)
     1   6 C        2.927    -0.013    28.328     8.728
     2   6 C        2.917    -0.012    28.307     8.725
     3   6 C        2.927    -0.013    28.327     8.728
     4   6 C        3.020    -0.018    28.445     8.749
     5   6 C        2.963     0.073    26.365     8.422
     6   6 C        3.019    -0.018    28.440     8.748
     7   1 H        0.926     0.078     2.002     2.213
     8   1 H        0.926     0.072     2.059     2.244
     9   1 H        0.926     0.078     2.000     2.212
    10   1 H        0.926     0.091     1.870     2.139
    11   1 H        0.926     0.091     1.873     2.140
    12  53 I        2.334     0.181   358.952    32.706
    13   6 C        2.963     0.073    26.364     8.422
    14   6 C        3.019    -0.018    28.440     8.748
    15   6 C        3.020    -0.018    28.445     8.749
    16   6 C        2.927    -0.013    28.328     8.728
    17   1 H        0.926     0.091     1.873     2.140
    18   6 C        2.927    -0.013    28.327     8.728
    19   1 H        0.926     0.091     1.870     2.139
    20   6 C        2.917    -0.012    28.307     8.725
    21   1 H        0.926     0.078     2.002     2.213
    22   1 H        0.926     0.078     2.000     2.212
    23   1 H        0.926     0.072     2.058     2.244

 Mol. C6AA /au·bohr⁶  :       9297.298052
 Mol. C8AA /au·bohr⁸  :     326648.457412
 Mol. α(0) /au        :        158.798644


Wiberg/Mayer (AO) data.
largest (>0.10) Wiberg bond orders for each atom

 ---------------------------------------------------------------------------
     #   Z sym  total        # sym  WBO       # sym  WBO       # sym  WBO
 ---------------------------------------------------------------------------
     1   6 C    3.986 --     2 C    1.439     6 C    1.425     7 H    0.962
                             4 C    0.110
     2   6 C    3.981 --     1 C    1.439     3 C    1.438     8 H    0.966
                             5 C    0.101
     3   6 C    3.986 --     2 C    1.438     4 C    1.425     9 H    0.962
                             6 C    0.110
     4   6 C    3.984 --     3 C    1.425     5 C    1.410    10 H    0.956
                             1 C    0.110
     5   6 C    3.884 --     6 C    1.411     4 C    1.410    12 I    0.888
                             2 C    0.101
     6   6 C    3.984 --     1 C    1.425     5 C    1.411    11 H    0.956
                             3 C    0.110
     7   1 H    0.994 --     1 C    0.962
     8   1 H    0.992 --     2 C    0.966
     9   1 H    0.994 --     3 C    0.962
    10   1 H    0.992 --     4 C    0.956
    11   1 H    0.992 --     6 C    0.956
    12  53 I    2.088 --    13 C    0.888     5 C    0.888
    13   6 C    3.884 --    14 C    1.411    15 C    1.410    12 I    0.888
                            20 C    0.101
    14   6 C    3.984 --    16 C    1.425    13 C    1.411    17 H    0.956
                            18 C    0.110
    15   6 C    3.984 --    18 C    1.425    13 C    1.410    19 H    0.956
                            16 C    0.110
    16   6 C    3.986 --    20 C    1.439    14 C    1.425    21 H    0.962
                            15 C    0.110
    17   1 H    0.992 --    14 C    0.956
    18   6 C    3.986 --    20 C    1.438    15 C    1.425    22 H    0.962
                            14 C    0.110
    19   1 H    0.992 --    15 C    0.956
    20   6 C    3.981 --    16 C    1.439    18 C    1.438    23 H    0.966
                            13 C    0.101
    21   1 H    0.994 --    16 C    0.962
    22   1 H    0.994 --    18 C    0.962
    23   1 H    0.992 --    20 C    0.966
 ---------------------------------------------------------------------------

Topologies differ in total number of bonds
Writing topology from bond orders to xtbtopo.mol

molecular dipole:
                 x           y           z       tot (Debye)
 q only:       -7.148       2.580      -2.210
   full:       -7.194       2.659      -2.050      20.179
molecular quadrupole (traceless):
                xx          xy          yy          xz          yz          zz
 q only:       43.019     -33.173     -15.243      28.689     -18.263     -27.776
  q+dip:       46.350     -30.695     -15.329      26.562     -17.451     -31.020
   full:       44.049     -33.631     -15.065      26.803     -17.440     -28.984

           -------------------------------------------------
          |                Geometry Summary                 |
           -------------------------------------------------

      molecular mass/u    :      281.1127102
   center of mass at/Å    :       -3.9573951       1.6659041      -0.5671171
  moments of inertia/u·Å² :        0.6770220E+03   0.1278161E+04   0.1602425E+04
rotational constants/cm⁻¹ :        0.2489968E-01   0.1318898E-01   0.1052007E-01

 * 22 selected distances

     #   Z          #   Z                                           value/Å
     1   6 C        2   6 C                                       1.3856895
     2   6 C        3   6 C                                       1.3858380
     3   6 C        4   6 C                                       1.3866272
     4   6 C        5   6 C                                       1.3810110
     1   6 C        6   6 C                                       1.3867385
     5   6 C        6   6 C                                       1.3809699
     1   6 C        7   1 H                                       1.0790459
     2   6 C        8   1 H                                       1.0792562
     3   6 C        9   1 H                                       1.0791230
     4   6 C       10   1 H                                       1.0781346 (min)
     6   6 C       11   1 H                                       1.0782101
    13   6 C       14   6 C                                       1.3809502
    13   6 C       15   6 C                                       1.3810395
    14   6 C       16   6 C                                       1.3867599 (max)
    14   6 C       17   1 H                                       1.0782204
    15   6 C       18   6 C                                       1.3866677
    15   6 C       19   1 H                                       1.0781696
    16   6 C       20   6 C                                       1.3857189
    18   6 C       20   6 C                                       1.3858587
    16   6 C       21   1 H                                       1.0790459
    18   6 C       22   1 H                                       1.0790689
    20   6 C       23   1 H                                       1.0792414

 * 2 distinct bonds (by element types)

   Z      Z             #   av. dist./Å        max./Å        min./Å
   1 H    6 C          10     1.0787516     1.0792562     1.0781346
   6 C    6 C          12     1.3844891     1.3867599     1.3809502


optimized geometry written to: xtbopt.xyz


           -------------------------------------------------
          | TOTAL ENERGY              -34.175143565141 Eh   |
          | GRADIENT NORM               0.000134190627 Eh/α |
          | HOMO-LUMO GAP               3.456090662457 eV   |
           -------------------------------------------------

------------------------------------------------------------------------
 * finished run on 2022/05/29 at 19:00:51.818     
------------------------------------------------------------------------
 total:
 * wall-time:     0 d,  0 h,  0 min,  0.423 sec
 *  cpu-time:     0 d,  0 h,  0 min,  6.605 sec
 * ratio c/w:    15.632 speedup
 SCF:
 * wall-time:     0 d,  0 h,  0 min,  0.013 sec
 *  cpu-time:     0 d,  0 h,  0 min,  0.201 sec
 * ratio c/w:    15.985 speedup
 ANC optimizer:
 * wall-time:     0 d,  0 h,  0 min,  0.367 sec
 *  cpu-time:     0 d,  0 h,  0 min,  5.853 sec
 * ratio c/w:    15.951 speedup

normal termination of xtb
