23
 energy: -34.161608790115 gnorm: 0.073867694953 xtb: 6.4.1 (afa7bdf)
C        -3.06870000000000   -2.28540000000000    0.00000000000000
C        -1.67350000000000   -2.28540000000000    0.00000000000000
C        -0.97600000000000   -1.07770000000000    0.00000000000000
C        -1.67360000000000    0.13090000000000   -0.00120000000000
C        -3.06850000000000    0.13080000000000   -0.00170000000000
C        -3.76610000000000   -1.07740000000000   -0.00070000000000
H        -3.61840000000000   -3.23770000000000    0.00040000000000
H        -1.12400000000000   -3.23790000000000    0.00130000000000
H         0.12370000000000   -1.07760000000000    0.00060000000000
H        -1.12340000000000    1.08300000000000   -0.00130000000000
H        -4.86570000000000   -1.07720000000000   -0.00090000000000
I        -4.11890000000000    1.94920000000000   -0.00350000000000
C        -4.64360000000000    2.85690000000000   -1.82310000000000
C        -3.77180000000000    3.76300000000000   -2.42740000000000
C        -5.86360000000000    2.55380000000000   -2.42750000000000
C        -4.12020000000000    4.36650000000000   -3.63560000000000
H        -2.81040000000000    4.00240000000000   -1.95030000000000
C        -6.21180000000000    3.15650000000000   -3.63650000000000
H        -6.55070000000000    1.83950000000000   -1.95140000000000
C        -5.34050000000000    4.06290000000000   -4.24060000000000
H        -3.43340000000000    5.08120000000000   -4.11170000000000
H        -7.17360000000000    2.91710000000000   -4.11310000000000
H        -5.61500000000000    4.53870000000000   -5.19320000000000
23
 energy: -34.169604669655 gnorm: 0.031161600316 xtb: 6.4.1 (afa7bdf)
C        -3.06996349232075   -2.27292323499956   -0.00060355056784
C        -1.68145635948456   -2.27191423065527    0.00233680085866
C        -0.98607561605582   -1.07042809018796   -0.00037400593050
C        -1.67275488680710    0.13401794738621   -0.03160433978853
C        -3.06308345054117    0.12174440623748   -0.07255119492972
C        -3.76925570161083   -1.07615867980425   -0.03169439814408
H        -3.61328680788091   -3.21170647157677    0.00827470464525
H        -1.13897980002263   -3.21214860370389    0.00547184056113
H         0.09864372614151   -1.06913118309122    0.00875206580057
H        -1.12701060307961    1.07199452175393   -0.01580868335984
H        -4.85446081746797   -1.07924091426889   -0.01574416562137
I        -4.15683073835501    2.01604954790577    0.12892942034160
C        -4.61565459878798    2.80833855282699   -1.86748674701389
C        -3.75635670245272    3.74066778948003   -2.43995096567717
C        -5.85192390964125    2.52866666721108   -2.44037420632588
C        -4.12183712219762    4.35889606861704   -3.62584576922307
H        -2.81359304775484    3.99058802213984   -1.96386317546339
C        -6.20469327722130    3.15413576683997   -3.62662502356616
H        -6.53906258297771    1.83624931530502   -1.96460558250182
C        -5.33673955803611    4.05650673147045   -4.22641217212595
H        -3.44730029445991    5.07007400815035   -4.09038233058404
H        -7.15708455981401    2.92356106287956   -4.09188414452117
H        -5.60893979917167    4.52826100008405   -5.16535437686279
23
 energy: -34.171330340433 gnorm: 0.012057963901 xtb: 6.4.1 (afa7bdf)
C        -3.07650389444587   -2.25752400995166   -0.02448271900127
C        -1.69091894200724   -2.25587558410035   -0.01609445830905
C        -0.99616194162581   -1.05722324034420   -0.02457786801408
C        -1.67715107115242    0.14705200554923   -0.03636424661624
C        -3.06006481095936    0.11683912194186   -0.05151906379544
C        -3.77833830722846   -1.06544951344073   -0.03665908762591
H        -3.61788957307220   -3.18910625607648    0.00113973693139
H        -1.15199404424102   -3.18996639894322    0.01138519472483
H         0.08132388602907   -1.05435543716721    0.00065195368531
H        -1.13472598464866    1.07824137889214   -0.02295995714843
H        -4.85602068638082   -1.06888783387087   -0.02334014234387
I        -4.15137683207135    2.00700580201786    0.11029544902183
C        -4.62573512030839    2.82601408757264   -1.86249100435721
C        -3.74818368100459    3.73194447304290   -2.43091394333402
C        -5.84802651828739    2.51682674205871   -2.43177816244182
C        -4.10909238306526    4.33250522820882   -3.62378406575424
H        -2.81128207651655    3.97942307124646   -1.95915736412325
C        -6.18826319329264    3.12989757295472   -3.62444281221525
H        -6.52951736080816    1.82699832041240   -1.96151885450075
C        -5.32465659337665    4.03562643785500   -4.21885486298514
H        -3.44530158503113    5.05136956376593   -4.07558487541639
H        -7.14225381836921    2.91283539834920   -4.07649112353362
H        -5.60556546813585    4.52190907002675   -5.13985772284738
23
 energy: -34.171804167129 gnorm: 0.003293985532 xtb: 6.4.1 (afa7bdf)
C        -3.08651751158588   -2.24095712505888   -0.03355156788814
C        -1.70068202208510   -2.23928984613678   -0.02194155696832
C        -1.00562449991121   -1.04044627127240   -0.03391980601325
C        -1.68649528920536    0.16691734228193   -0.04912181777182
C        -3.06723431752961    0.12926879734556   -0.06179167933003
C        -3.79094168237829   -1.04727319493301   -0.04929328279019
H        -3.62842254477413   -3.17278038222673   -0.01388225407408
H        -1.16182817430253   -3.17330867128314    0.00550731131226
H         0.07235545669661   -1.03759991708207   -0.01489104265948
H        -1.14349007657631    1.09725375331041   -0.03936942848970
H        -4.86816572365604   -1.05153621243006   -0.04018913333622
I        -4.15420640201288    2.01210380985467    0.12005358811487
C        -4.61701503437284    2.81153092434528   -1.85581680913010
C        -3.73533939044274    3.71378859148111   -2.41858997462590
C        -5.83796958272967    2.49614468722660   -2.41965195766047
C        -4.10005332210420    4.31741561821255   -3.61192341663767
H        -2.79702878356459    3.95895146404980   -1.94959052845193
C        -6.17952253999514    3.11418606398892   -3.61246708642317
H        -6.51765209246076    1.80312083911790   -1.95265945999545
C        -5.31762954705729    4.02335187614252   -4.20494047697098
H        -3.43352291977028    5.03238411327304   -4.06672036930932
H        -7.13167997460404    2.89284685930111   -4.06715063310148
H        -5.59903402557765    4.51002688049147   -5.12549861779944
23
 energy: -34.172109831572 gnorm: 0.005025518605 xtb: 6.4.1 (afa7bdf)
C        -3.09810179837121   -2.22248387515693   -0.05006519722106
C        -1.71205245383230   -2.22009393865715   -0.03574279561318
C        -1.01603215302845   -1.02149509242473   -0.05071939748474
C        -1.69715708755340    0.18809491055025   -0.06114767193730
C        -3.07744945392590    0.14696332661452   -0.06532081640699
C        -3.80409467722730   -1.02727364080368   -0.06119331893803
H        -3.64091882527858   -3.15541482858524   -0.03476267662825
H        -1.17287127355867   -3.15477362999272   -0.00282880946508
H         0.06338726064022   -1.01886231132119   -0.03659116335407
H        -1.15283427606624    1.11833299382684   -0.05454215876539
H        -4.88189272594689   -1.03260535444066   -0.05515146826036
I        -4.16155276761279    2.02576709520311    0.14627071684511
C        -4.60947998948857    2.79918025302045   -1.84083834761839
C        -3.72267832625109    3.69509856122398   -2.40451087510837
C        -5.82711468956384    2.47508889545458   -2.40591653583457
C        -4.08709220297462    4.29627329781610   -3.60156388341927
H        -2.78219196012953    3.93864977882836   -1.93777947882620
C        -6.16724731446315    3.09170331422870   -3.60217598424925
H        -6.50589192580246    1.77845681273374   -1.94171599398331
C        -5.30644863053270    4.00388386167587   -4.19235346648910
H        -3.41791295092287    5.00900319478941   -4.05919037257262
H        -7.11878283061707    2.86663491984057   -4.05951380835332
H        -5.59128894749248    4.49597145557551   -5.11004649631623
23
 energy: -34.172292869369 gnorm: 0.004908955463 xtb: 6.4.1 (afa7bdf)
C        -3.10578262986845   -2.20998541999995   -0.06216548883182
C        -1.71986427675738   -2.20703919764381   -0.04784999222626
C        -1.02314512858927   -1.00897388522002   -0.06345115177866
C        -1.70427888779186    0.20077271575026   -0.06625455704947
C        -3.08484988513578    0.15992057117055   -0.06259914381608
C        -3.81163617334307   -1.01449845059470   -0.06552002817250
H        -3.64907240114417   -3.14310751101097   -0.05374403349482
H        -1.18067881392576   -3.14191438372325   -0.01704378298893
H         0.05668475868158   -1.00638754608156   -0.05652019570541
H        -1.15947235250890    1.13110999426188   -0.05945664914985
H        -4.88976926561230   -1.02001842449859   -0.05892490469657
I        -4.16759407529088    2.03638326116683    0.16718635651473
C        -4.60646627766728    2.79438595305625   -1.82698050837294
C        -3.71664651169938    3.68529488544287   -2.39446449684119
C        -5.82082121285212    2.46426241469418   -2.39627836483662
C        -4.07805212488482    4.28123928329881   -3.59517950840825
H        -2.77586411311208    3.92926358516189   -1.92775926645334
C        -6.15817521813833    3.07564567662156   -3.59608943646948
H        -6.49957480314359    1.76672683434542   -1.93266624058661
C        -5.29767782007812    3.98873832959105   -4.18504984753864
H        -3.40576082729029    4.98934839898321   -4.05619189720658
H        -7.10697849647600    2.84490889474803   -4.05704154497338
H        -5.58222346337162    4.48002402047970   -5.10335531691730
23
 energy: -34.172442211253 gnorm: 0.002836724523 xtb: 6.4.1 (afa7bdf)
C        -3.11059902779130   -2.20208818387624   -0.07127581148629
C        -1.72478082661444   -2.19893437551012   -0.06040426298920
C        -1.02782300811009   -1.00112599531925   -0.07317742403468
C        -1.70898531943829    0.20787012986310   -0.06682152773465
C        -3.09009814912214    0.16888072786316   -0.05742044998713
C        -3.81565459907742   -1.00686640787390   -0.06527037973154
H        -3.65400328591006   -3.13506315148723   -0.06773505928887
H        -1.18556997474080   -3.13392523130627   -0.03415099732109
H         0.05193036037161   -0.99848457774147   -0.07149610299049
H        -1.16439880355863    1.13854478106967   -0.05770419205665
H        -4.89397326767472   -1.01193956991907   -0.05551186784612
I        -4.17162720809541    2.04385732357205    0.18164901573629
C        -4.60582744137914    2.79365186263801   -1.81558280135597
C        -3.71477294220056    3.68149249051612   -2.38720462028275
C        -5.81769316285248    2.46004441450665   -2.38937566384417
C        -4.07183552996285    4.27077048552771   -3.59176502599289
H        -2.77507779693128    3.92734116015383   -1.91881047486966
C        -6.15147203191949    3.06415291949769   -3.59314916901860
H        -6.49725505846485    1.76409931408721   -1.92404560698586
C        -5.28997331843132    3.97551903810967   -4.18300595960176
H        -3.39753306440606    4.97536670304060   -4.05499649039465
H        -7.09778707599232    2.82907500149767   -4.05681372689565
H        -5.57288946769784    4.46386114108998   -5.10333140102760
23
 energy: -34.172591058906 gnorm: 0.001525528534 xtb: 6.4.1 (afa7bdf)
C        -3.11463311870692   -2.19541459223682   -0.07955794591704
C        -1.72879807864839   -2.19242382566498   -0.07498743137834
C        -1.03189042676740   -0.99458303424866   -0.08245933976728
C        -1.71297474950928    0.21346928775907   -0.06524050487538
C        -3.09456200857528    0.17639845669912   -0.05101924130584
C        -3.81881084393389   -1.00066989399758   -0.06244040927073
H        -3.65793091654966   -3.12807231250560   -0.07981871300857
H        -1.18959253656880   -3.12747423784797   -0.05767435427308
H         0.04752061602572   -0.99189941842068   -0.08504242416681
H        -1.16899757472244    1.14447901240652   -0.05178610538393
H        -4.89711017741429   -1.00497596024744   -0.04740446991010
I        -4.17507363561226    2.05000692012157    0.19370357393923
C        -4.60617766976387    2.79464615526835   -1.80486897211862
C        -3.71446476292063    3.68029691710310   -2.38004942278294
C        -5.81602958227653    2.45855974270226   -2.38255764842317
C        -4.06631157602448    4.26142927699436   -3.58919811322216
H        -2.77715408537051    3.92957889637959   -1.90860359198446
C        -6.14522355718937    3.05374655655871   -3.59117503611602
H        -6.49692201104030    1.76581565609175   -1.91428955650124
C        -5.28172028172688    3.96145993213067   -4.18361671713530
H        -3.39076592831363    4.96333801645099   -4.05391994203726
H        -7.08916090392059    2.81507957599294   -4.05709021083386
H        -5.56091619047014    4.44330887251028   -5.10830342352703
23
 energy: -34.172812674599 gnorm: 0.003141460223 xtb: 6.4.1 (afa7bdf)
C        -3.12060849259218   -2.18556637375974   -0.09195824534839
C        -1.73465136626750   -2.18304624386135   -0.10073459005691
C        -1.03804501620088   -0.98489933641590   -0.09699075945193
C        -1.71886454125428    0.22204315091374   -0.06092607020110
C        -3.10085897649065    0.18675591856305   -0.04015445955414
C        -3.82387133194171   -0.99156722085904   -0.05581831819734
H        -3.66357017503893   -3.11788322737669   -0.09673455253304
H        -1.19542893608307   -3.11820074627564   -0.10100085970316
H         0.04088002442571   -0.98225977045062   -0.10562029313827
H        -1.17577438416048    1.15331994634580   -0.03973444063025
H        -4.90192289730058   -0.99491001496950   -0.03090659817675
I        -4.18000597240845    2.05911069804333    0.21153055160262
C        -4.60757251285137    2.79755936122060   -1.78895305601023
C        -3.71490190730472    3.68062531081049   -2.36779343376518
C        -5.81455988600247    2.45755521803827   -2.37142206930065
C        -4.05796310331600    4.24739996095628   -3.58539735405797
H        -2.78213056187410    3.93643018620564   -1.89101616970573
C        -6.13554310430106    3.03788243254440   -3.58862724722246
H        -6.49825118798729    1.77108120532598   -1.89816371604558
C        -5.26758166704390    3.93760894890556   -4.18689247210917
H        -3.38100586953498    4.94597579927382   -4.05201691295537
H        -7.07626706486938    2.79463967914735   -4.05762118637341
H        -5.53920106960151    4.40644511767360   -5.12044774706551
23
 energy: -34.172949105001 gnorm: 0.003151694580 xtb: 6.4.1 (afa7bdf)
C        -3.12461988676564   -2.17899111566266   -0.09947599309266
C        -1.73870336807063   -2.17653892087866   -0.11669697052651
C        -1.04217507423049   -0.97835526399733   -0.10660369969076
C        -1.72272235320335    0.22827444289075   -0.05905602233064
C        -3.10460010574565    0.19278016066952   -0.03361812298559
C        -3.82773295027430   -0.98538941386642   -0.05178857669529
H        -3.66743743073256   -3.11131402438797   -0.10696441829264
H        -1.19956299845819   -3.11162452308707   -0.12898100443166
H         0.03665862758370   -0.97576791137353   -0.11924428804528
H        -1.17969534658943    1.15936003337383   -0.03282505313153
H        -4.90552608677865   -0.98879150111277   -0.02057074468139
I        -4.18363320028284    2.06468894054971    0.22299897056172
C        -4.60844569300591    2.79942656793969   -1.77955220073538
C        -3.71447616069292    3.68035463800851   -2.35958018196675
C        -5.81353600645148    2.45618271642024   -2.36394161077195
C        -4.05248715113237    4.23839922391517   -3.58253923233928
H        -2.78479426219637    3.94106928779918   -1.87961257493143
C        -6.12925861859036    3.02772314669941   -3.58660974954876
H        -6.49918516667905    1.77337577641194   -1.88843556793577
C        -5.25849093087953    3.92255534188182   -4.18821392165729
H        -3.37451919566097    4.93502265278044   -4.05047922006735
H        -7.06803334306388    2.78139547080753   -4.05777964860884
H        -5.52472329809887    4.38226427421806   -5.12783016809485
23
 energy: -34.173078025351 gnorm: 0.002289857098 xtb: 6.4.1 (afa7bdf)
C        -3.12867537864928   -2.17246088229582   -0.10649496431830
C        -1.74287246505799   -2.16982562106415   -0.13214815454486
C        -1.04642843544590   -0.97163941870812   -0.11603905704369
C        -1.72676758100056    0.23488317497870   -0.05774962637180
C        -3.10827457411530    0.19837796455825   -0.02779248868610
C        -3.83191291190916   -0.97917349361265   -0.04823387045083
H        -3.67136980742781   -3.10490972217300   -0.11621812864772
H        -1.20378391864664   -3.10472924955776   -0.15498690648873
H         0.03241797131732   -0.96900780190673   -0.13302725815325
H        -1.18349246677436    1.16558252187353   -0.02788057476458
H        -4.90941829449635   -0.98313533839580   -0.01126755367576
I        -4.18688684900401    2.07035863089920    0.23436065435885
C        -4.60928908379171    2.80105475440104   -1.77072231182014
C        -3.71388296752436    3.67999319181524   -2.35095702703299
C        -5.81223446531437    2.45395967602551   -2.35670946139216
C        -4.04708124848439    4.22968801237093   -3.57926230532117
H        -2.78671120152459    3.94489786661541   -1.86871396275776
C        -6.12292766647953    3.01758442023495   -3.58455880661927
H        -6.50000163056462    1.77455196223097   -1.87959643946463
C        -5.24939502501393    3.90776289039102   -4.18910919919126
H        -3.36794680524570    4.92439523649776   -4.04851883488930
H        -7.06000305666200    2.76847436699361   -4.05777321490376
H        -5.51076213818447    4.35941685782723   -5.13400050782068
23
 energy: -34.173196738465 gnorm: 0.001328052969 xtb: 6.4.1 (afa7bdf)
C        -3.13280692030529   -2.16583840047269   -0.11295714351141
C        -1.74716682480960   -2.16287146213085   -0.14581928059465
C        -1.05075296573940   -0.96474931359066   -0.12565571439953
C        -1.73094089942598    0.24172577248663   -0.05835611385775
C        -3.11200702232121    0.20398909529269   -0.02300774344004
C        -3.83625489907838   -0.97279736056317   -0.04562515357383
H        -3.67543987897305   -3.09844284471005   -0.12473668232551
H        -1.20812748800185   -3.09754832213126   -0.17803867141110
H         0.02813873690599   -0.96196726256646   -0.14682165140016
H        -1.18722821651356    1.17200672411144   -0.02497570651847
H        -4.91350852055313   -0.97757784234430   -0.00338807348676
I        -4.19089084106685    2.07544293967061    0.24558890738253
C        -4.60974415113979    2.80208730753086   -1.76224444015180
C        -3.71251850081821    3.67846960663115   -2.34283525083948
C        -5.81049047480926    2.45102223473878   -2.34965101393459
C        -4.04157343311338    4.22107237092314   -3.57573126412266
H        -2.78793894740950    3.94799703926217   -1.85824702609764
C        -6.11660618480365    3.00764178600445   -3.58218641285235
H        -6.50012718330047    1.77426027223007   -1.87160777745769
C        -5.24082489130089    3.89416174363603   -4.18888907181787
H        -3.36130846956585    4.91412808160116   -4.04607375826175
H        -7.05187170304279    2.75542505212321   -4.05762312534217
H        -5.49771032081360    4.33846278226634   -5.13851783198518
23
 energy: -34.173356888564 gnorm: 0.001422030103 xtb: 6.4.1 (afa7bdf)
C        -3.13902226332205   -2.15606460027412   -0.12202771256115
C        -1.75367640230888   -2.15230159624843   -0.16430741605884
C        -1.05739957845396   -0.95419588239115   -0.13976301719614
C        -1.73753218567345    0.25211898205780   -0.06037954424235
C        -3.11793742264514    0.21247352526923   -0.01733205083948
C        -3.84282488589496   -0.96342387325215   -0.04301810083204
H        -3.68155025174738   -3.08889238023493   -0.13636043468423
H        -1.21463666283604   -3.08652920477028   -0.20694458465675
H         0.02153244766179   -0.95093151668243   -0.16781928343365
H        -1.19325877355139    1.18188567417905   -0.02476985227149
H        -4.91974102275565   -0.96953249895796    0.00584082539326
I        -4.19585138164252    2.08337679911410    0.26206791169634
C        -4.61003708078641    2.80249266596623   -1.74994134131779
C        -3.71043474246760    3.67580230824627   -2.33049837958275
C        -5.80720290576914    2.44525255035434   -2.34008956808732
C        -4.03355076043042    4.20878843456300   -3.56968303233599
H        -2.78850216672956    3.94997395930030   -1.84374272102008
C        -6.10715158849661    2.99284374648835   -3.57865115020815
H        -6.49936445358886    1.77174992175966   -1.86114741830236
C        -5.22855763663318    3.87511826330522   -4.18744952174905
H        -3.35118927870680    4.89894676562155   -4.04168210445697
H        -7.03979910238384    2.73623269175826   -4.05725808439439
H        -5.48001190083764    4.31091526482731   -5.14244341885845
23
 energy: -34.173499193471 gnorm: 0.001958442188 xtb: 6.4.1 (afa7bdf)
C        -3.14504454469932   -2.14653964024662   -0.13015141112767
C        -1.75996948576206   -2.14201803637608   -0.17996886279367
C        -1.06380476889494   -0.94392455235348   -0.15388913620963
C        -1.74387251365850    0.26195110936969   -0.06492879352521
C        -3.12384542072174    0.22110303879927   -0.01290406138109
C        -3.84896194774000   -0.95438111498309   -0.04109041622928
H        -3.68752210524793   -3.07948561793379   -0.14699328536406
H        -1.22089718969469   -3.07589007786379   -0.23076151178383
H         0.01503016133878   -0.94005618505557   -0.18821583217284
H        -1.19935378780884    1.19159131275786   -0.02667455666378
H        -4.92564088273230   -0.96141813518705    0.01334589798849
I        -4.20259662924642    2.08961672030121    0.27755214751400
C        -4.60970480421946    2.80206673883856   -1.73809298220770
C        -3.70746052178034    3.67156827941472   -2.31997415798633
C        -5.80363198875774    2.43952555556166   -2.33109254629026
C        -4.02550957390283    4.19683601182606   -3.56394046761528
H        -2.78861346929341    3.95105342068192   -1.83006467648209
C        -6.09798590232453    2.97884597686733   -3.57491003851471
H        -6.49727886389646    1.76777689189237   -1.85180137954029
C        -5.21735723378535    3.85824573776003   -4.18496158872522
H        -3.34157886262254    4.88497519041109   -4.03680918402152
H        -7.02773664931884    2.71741163132601   -4.05682792814447
H        -5.46436301523017    4.28724574419078   -5.14424522872336
23
 energy: -34.173632412468 gnorm: 0.002001875430 xtb: 6.4.1 (afa7bdf)
C        -3.15098988205385   -2.13744120898647   -0.13804741096066
C        -1.76625470554201   -2.13176538578231   -0.19498262160955
C        -1.07052338112524   -0.93342338013364   -0.16755553517352
C        -1.75072889389499    0.27168038805676   -0.06867599007723
C        -3.13027516649167    0.22966339786334   -0.00911752352168
C        -3.85495993968291   -0.94606235391466   -0.03991790057549
H        -3.69321427343630   -3.07049421326976   -0.15664893309758
H        -1.22699037469105   -3.06510385231329   -0.25189986541067
H         0.00810225937229   -0.92867414026416   -0.20932879517894
H        -1.20652515593647    1.20147025796515   -0.03139817544982
H        -4.93138905533179   -0.95385532537092    0.02034538916917
I        -4.20598093766730    2.09745962623272    0.29257125679764
C        -4.60947599338618    2.80081204041266   -1.72640370216019
C        -3.70561621539861    3.66842439133657   -2.30841504029394
C        -5.79961736768467    2.43259122591247   -2.32367102886319
C        -4.01793083596216    4.18571049780911   -3.55725070309817
H        -2.78828434884430    3.94965125716003   -1.81704905575796
C        -6.08873930742815    2.96467637663363   -3.57173148282909
H        -6.49512344640641    1.76331821775597   -1.84337757901083
C        -5.20636795245758    3.84203347141707   -4.18207887901280
H        -3.33160149896600    4.87058257389549   -4.03149927165760
H        -7.01574571300876    2.69914170077928   -4.05661513209247
H        -5.44946781397548    4.26570443680402   -5.14465202013521
23
 energy: -34.173717516438 gnorm: 0.001634695781 xtb: 6.4.1 (afa7bdf)
C        -3.15484360161103   -2.13140518008139   -0.14276563096542
C        -1.77031010992658   -2.12504620075049   -0.20499334140924
C        -1.07482313569975   -0.92658897307140   -0.17716467082315
C        -1.75505256833650    0.27784862378293   -0.07210170321190
C        -3.13443329289587    0.23541680331316   -0.00640849761310
C        -3.85872933239843   -0.94059581304305   -0.03789272724734
H        -3.69689596051280   -3.06451292380668   -0.16278402514096
H        -1.23093310544469   -3.05805394156424   -0.26599769436372
H         0.00356449604924   -0.92126852903450   -0.22350595895873
H        -1.21122179970385    1.20791207666411   -0.03440122017878
H        -4.93496437850638   -0.94869644370314    0.02557947060111
I        -4.21108947071744    2.10092289176798    0.30232779762416
C        -4.60912359937455    2.80014151065388   -1.71864796185430
C        -3.70385180613865    3.66574001828413   -2.30175169085995
C        -5.79719412302980    2.42899262061547   -2.31827867760194
C        -4.01258313726651    4.17817536168791   -3.55331824666934
H        -2.78836683030082    3.94959645129521   -1.80819013307299
C        -6.08255895344711    2.95562406074809   -3.56946148292878
H        -6.49313495802406    1.76025338542356   -1.83785126584148
C        -5.19892640766816    3.83138762928711   -4.18033243302331
H        -3.32522615391618    4.86171031782757   -4.02789704953988
H        -7.00740615036574    2.68679243966192   -4.05663784778654
H        -5.43959562076392    4.25175381404088   -5.14492500913418
23
 energy: -34.173840280242 gnorm: 0.000993450940 xtb: 6.4.1 (afa7bdf)
C        -3.16055839130539   -2.12263180130888   -0.14974813921088
C        -1.77643907087261   -2.11489462987329   -0.21986295846985
C        -1.08156723469241   -0.91610839537735   -0.19211567208214
C        -1.76193936909563    0.28705785498195   -0.07755501513907
C        -3.14103476214213    0.24384339058717   -0.00221794916517
C        -3.86433585101091   -0.93297616650605   -0.03510128645021
H        -3.70214294269864   -3.05589862623447   -0.17127142023262
H        -1.23674340870406   -3.04731195803806   -0.28874950349245
H        -0.00361248776661   -0.90969773269039   -0.24580703505923
H        -1.21894267342219    1.21775014304309   -0.03845064640782
H        -4.94030682367103   -0.94161779481913    0.03569467484913
I        -4.21716187411720    2.10696435115012    0.31676657553770
C        -4.60902191751004    2.79932126262135   -1.70677060646892
C        -3.70153992792206    3.66190271201608   -2.29143396829668
C        -5.79353211632667    2.42331529313768   -2.31081962227755
C        -4.00442155837426    4.16678624228745   -3.54717268047271
H        -2.78923070446401    3.95008461800256   -1.79398218463924
C        -6.07301218542039    2.94177204165488   -3.56650411045087
H        -6.49085499151064    1.75655112639711   -1.82938269691966
C        -5.18757800478036    3.81553251349567   -4.17761744837263
H        -3.31539942369268    4.84824331812413   -4.02213354060905
H        -6.99458732304413    2.66825681110509   -4.05711745520680
H        -5.42373695745551    4.22985542624224   -5.14604731096302
23
 energy: -34.173952529003 gnorm: 0.000879219246 xtb: 6.4.1 (afa7bdf)
C        -3.16595230351638   -2.11431587792627   -0.15614361627822
C        -1.78227056227550   -2.10522146150988   -0.23603895349722
C        -1.08803979048755   -0.90608871423301   -0.20650205172361
C        -1.76853631004640    0.29581203196620   -0.08119162084038
C        -3.14723316781664    0.25168993645541    0.00220952507520
C        -3.86963793725277   -0.92579315570582   -0.03059354959325
H        -3.70698287447088   -3.04776059344742   -0.17892972366073
H        -1.24244112115617   -3.03681628580836   -0.31176115525135
H        -0.01058764311665   -0.89859098993470   -0.26785223858402
H        -1.22636294356346    1.22689617021437   -0.04276715831098
H        -4.94504213931115   -0.93511509246513    0.04562128076121
I        -4.22388917653387    2.11218060575011    0.33066308916621
C        -4.60912789700775    2.79896677705427   -1.69544030062348
C        -3.70024880629242    3.65996196705202   -2.28054404064876
C        -5.79043902437180    2.41874155373162   -2.30329563080116
C        -3.99676958655176    4.15642140355334   -3.54100016394929
H        -2.79029781098675    3.95067923019326   -1.78065423450122
C        -6.06374676924618    2.92861413930896   -3.56367832925026
H        -6.48876495596762    1.75336892119328   -1.82149830159260
C        -5.17584913655660    3.79915506595253   -4.17586793327725
H        -3.30574490513497    4.83509862154967   -4.01686071641581
H        -6.98205992916592    2.65053620865701   -4.05762532147832
H        -5.40767520917032    4.20767953839741   -5.14764885472443
23
 energy: -34.174057060890 gnorm: 0.001077802473 xtb: 6.4.1 (afa7bdf)
C        -3.17102874819124   -2.10667462658550   -0.16261915759719
C        -1.78795566017094   -2.09599417800585   -0.25089860363680
C        -1.09447853487092   -0.89645474058970   -0.22043236871264
C        -1.77501623569587    0.30414564646824   -0.08493585611280
C        -3.15318576364199    0.25870371507475    0.00681890273036
C        -3.87466575000651   -0.91945713928445   -0.02735360913627
H        -3.71142124818015   -3.04042451959264   -0.18576010060708
H        -1.24793519897479   -3.02682280524490   -0.33636441544260
H        -0.01752505083052   -0.88775279108578   -0.28915186283158
H        -1.23348061445919    1.23561335733985   -0.04516961265335
H        -4.94965124589994   -0.92977087621300    0.05771180532443
I        -4.22769924433518    2.11850267775844    0.34373462979454
C        -4.60984265911365    2.79909786270770   -1.68465335399246