23
 energy: -34.161608747926 gnorm: 0.073867785494 xtb: 6.5.1 (579679a)
C           -3.06870000000000       -2.28540000000000        0.00000000000000
C           -1.67350000000000       -2.28540000000000        0.00000000000000
C           -0.97600000000000       -1.07770000000000        0.00000000000000
C           -1.67360000000000        0.13090000000000       -0.00120000000000
C           -3.06850000000000        0.13080000000000       -0.00170000000000
C           -3.76610000000000       -1.07740000000000       -0.00070000000000
H           -3.61840000000000       -3.23770000000000        0.00040000000000
H           -1.12400000000000       -3.23790000000000        0.00130000000000
H            0.12370000000000       -1.07760000000000        0.00060000000000
H           -1.12340000000000        1.08300000000000       -0.00130000000000
H           -4.86570000000000       -1.07720000000000       -0.00090000000000
I           -4.11890000000000        1.94920000000000       -0.00350000000000
C           -4.64360000000000        2.85690000000000       -1.82310000000000
C           -3.77180000000000        3.76300000000000       -2.42740000000000
C           -5.86360000000000        2.55380000000000       -2.42750000000000
C           -4.12020000000000        4.36650000000000       -3.63560000000000
H           -2.81040000000000        4.00240000000000       -1.95030000000000
C           -6.21180000000000        3.15650000000000       -3.63650000000000
H           -6.55070000000000        1.83950000000000       -1.95140000000000
C           -5.34050000000000        4.06290000000000       -4.24060000000000
H           -3.43340000000000        5.08120000000000       -4.11170000000000
H           -7.17360000000000        2.91710000000000       -4.11310000000000
H           -5.61500000000000        4.53870000000000       -5.19320000000000
23
 energy: -34.169604663490 gnorm: 0.031161611213 xtb: 6.5.1 (579679a)
C           -3.06996345384656       -2.27292311549747       -0.00060353915775
C           -1.68145642704317       -2.27191411400098        0.00233680891586
C           -0.98607573832911       -1.07042806409891       -0.00037399486045
C           -1.67275495186544        0.13401788788192       -0.03160434081245
C           -3.06308340780187        0.12174433258182       -0.07255122764122
C           -3.76925561741894       -1.07615865279826       -0.03169439904174
H           -3.61328673083048       -3.21170628861163        0.00827470931399
H           -1.13897990379547       -3.21214842440296        0.00547184411953
H            0.09864352951124       -1.06913115880491        0.00875207048721
H           -1.12701070529873        1.07199439636423       -0.01580868708749
H           -4.85446065752805       -1.07924088834021       -0.01574416950588
I           -4.15683060916067        2.01604932312972        0.12892897230553
C           -4.61565460618779        2.80833856543693       -1.86748683677211
C           -3.75635678198212        3.74066775495848       -2.43995098183796
C           -5.85192383971144        2.52866671794298       -2.44037422307447
C           -4.12183718642535        4.35889599452491       -3.62584569050572
H           -2.81359319192805        3.99058796981346       -1.96386322644084
C           -6.20469318104654        3.15413578555560       -3.62662494483473
H           -6.53906246569076        1.83624941399322       -1.96460563309954
C           -5.33673952667873        4.05650667732368       -4.22641205198381
H           -3.44730040297793        5.07007388045589       -4.09038222477059
H           -7.15708439501515        2.92356109353879       -4.09188403879994
H           -5.60893974894879        4.52826091305373       -5.16535419491549
23
 energy: -34.171330336405 gnorm: 0.012057970258 xtb: 6.5.1 (579679a)
C           -3.07650388191472       -2.25752374578467       -0.02448286396746
C           -1.69091909474610       -2.25587532512216       -0.01609469474881
C           -0.99616217871912       -1.05722312212674       -0.02457802195587
C           -1.67715119530726        0.14705199629001       -0.03636418928581
C           -3.06006475784601        0.11683903009445       -0.05151892997244
C           -3.77833823950399       -1.06544940880569       -0.03665902786356
H           -3.61788948329945       -3.18910585838276        0.00113951900972
H           -1.15199426966528       -3.18996601427936        0.01138484443550
H            0.08132349429353       -1.05435532078855        0.00065171302412
H           -1.13472616861642        1.07824121978445       -0.02295981890758
H           -4.85602045908746       -1.06888775167513       -0.02333999959086
I           -4.15137675764044        2.00700567635714        0.11029519513562
C           -4.62573520061719        2.82601423139099       -1.86249103278189
C           -3.74818378780652        3.73194444176703       -2.43091386391588
C           -5.84802642796465        2.51682680886771       -2.43177808926752
C           -4.10909238874409        4.33250495029795       -3.62378394880817
H           -2.81128236228534        3.97942309216003       -1.95915732538372
C           -6.18826294528128        3.12989743424497       -3.62444269654150
H           -6.52951721656743        1.82699855343730       -1.96151882906567
C           -5.32465641628495        4.03562613317773       -4.21885472019143
H           -3.44530165488222        5.05136912785706       -4.07558473171267
H           -7.14225340134974        2.91283523600983       -4.07649097991779
H           -5.60556520616365        4.52190861522848       -5.13985750772642
23
 energy: -34.171804164149 gnorm: 0.003293984527 xtb: 6.5.1 (579679a)
C           -3.08651744113668       -2.24095700100288       -0.03355160055658
C           -1.70068208482593       -2.23928973928315       -0.02194173986448
C           -1.00562464338261       -1.04044627238410       -0.03391984445290
C           -1.68649537647098        0.16691721325351       -0.04912174872325
C           -3.06723429643511        0.12926876050077       -0.06179166558835
C           -3.79094152855787       -1.04727318406890       -0.04929320901761
H           -3.62842241387454       -3.17278018677748       -0.01388228184422
H           -1.16182827887407       -3.17330849304900        0.00550692536241
H            0.07235522119315       -1.03759993346539       -0.01489108325998
H           -1.14349018893715        1.09725353329554       -0.03936920916505
H           -4.86816547846678       -1.05153622463215       -0.04018890237987
I           -4.15420637220030        2.01210376088808        0.12005349669597
C           -4.61701505808310        2.81153096393374       -1.85581682929586
C           -3.73533956421557        3.71378861413855       -2.41858998890812
C           -5.83796951446775        2.49614484588897       -2.41965197419299
C           -4.10005339639010        4.31741550027084       -3.61192336840992
H           -2.79702910386242        3.95895160463650       -1.94959051959864
C           -6.17952239724687        3.11418606655581       -3.61246704199764
H           -6.51765204915928        1.80312117874798       -1.95265945329240
C           -5.31762943217529        4.02335167903627       -4.20494046450429
H           -3.43352306152261        5.03238393786631       -4.06672029290485
H           -7.13167974398846        2.89284688574998       -4.06715056666768
H           -5.59903379691933        4.51002648990039       -5.12549863743386
23
 energy: -34.172109832396 gnorm: 0.005025516879 xtb: 6.5.1 (579679a)
C           -3.09810187266727       -2.22248354175807       -0.05006535699691
C           -1.71205264539612       -2.22009361357677       -0.03574302764001
C           -1.01603240705196       -1.02149486711611       -0.05071956724175
C           -1.69715729728388        0.18809503966642       -0.06114779301265
C           -3.07744955098029        0.14696349575076       -0.06532095458009
C           -3.80409468651367       -1.02727339193088       -0.06119343077916
H           -3.64091885898407       -3.15541443360504       -0.03476284714591
H           -1.17287150307838       -3.15477324218804       -0.00282914998924
H            0.06338693339254       -1.01886209436602       -0.03659135034883
H           -1.15283450028699        1.11833304091424       -0.05454225619163
H           -4.88189265702878       -1.03260513092654       -0.05515154935662
I           -4.16155276017316        2.02576709678370        0.14627071218610
C           -4.60947987926351        2.79918006669300       -1.84083824748482
C           -3.72267832639424        3.69509833043085       -2.40451073914266
C           -5.82711447870832        2.47508876784005       -2.40591640720106
C           -4.08709214532442        4.29627298959587       -3.60156367990753
H           -2.78219203537907        3.93864957112192       -1.93777938170138
C           -6.16724706795566        3.09170309906612       -3.60217578687855
H           -6.50589169141135        1.77845675190350       -1.94171590893525
C           -5.30644843454055        4.00388352284284       -4.19235325642224
H           -3.41791293837389        5.00900283041632       -4.05919014898193
H           -7.11878250864088        2.86663470669742       -4.05951359564418
H           -5.59128868795556        4.49597100574473       -5.11004627660397
23
 energy: -34.172292870567 gnorm: 0.004909008158 xtb: 6.5.1 (579679a)
C           -3.10578277244532       -2.20998497044995       -0.06216572770923
C           -1.71986453965362       -2.20703874975829       -0.04785025317232
C           -1.02314544952632       -1.00897354270310       -0.06345139924727
C           -1.70427915286998        0.20077296628878       -0.06625476999080
C           -3.08485001711938        0.15992080058176       -0.06259931812214
C           -3.81163626034647       -1.01449809270097       -0.06552023115515
H           -3.64907250369199       -3.14310697899212       -0.05374430623119
H           -1.18067912431713       -3.14191385627561       -0.01704411701489
H            0.05668434664375       -1.00638720175610       -0.05652048157684
H           -1.15947265126860        1.13111015449488       -0.05945686486156
H           -4.88976925758612       -1.02001807918728       -0.05892510683775
I           -4.16759406190357        2.03638324414520        0.16718631762118
C           -4.60646613376000        2.79438571265921       -1.82698036388509
C           -3.71664642615322        3.68529453440658       -2.39446429311243
C           -5.82082093825636        2.46426215422642       -2.39627816575289
C           -4.07805199745667        4.28123885659639       -3.59517922997950
H           -2.77586410908794        3.92926322754235       -1.92775911162023
C           -6.15817490246508        3.07564533971107       -3.59608916268124
H           -6.49957447576309        1.76672663206567       -1.93266609389010
C           -5.29767757768762        3.98873790971297       -4.18504952651633
H           -3.40576074328311        4.98934789153909       -4.05619159161947
H           -7.10697808442667        2.84490854367980       -4.05704124824802
H           -5.58222316757480        4.48002350417360       -5.10335495439710
23
 energy: -34.172442212570 gnorm: 0.002836761205 xtb: 6.5.1 (579679a)
C           -3.11059916709744       -2.20208773058373       -0.07127606061868
C           -1.72478109196986       -2.19893392099745       -0.06040451569748
C           -1.02782333310617       -1.00112565164022       -0.07317767918813
C           -1.70898557866347        0.20787037410746       -0.06682174567767
C           -3.09009826704853        0.16888093272908       -0.05742060568147
C           -3.81565468265764       -1.00686605921793       -0.06527059028718
H           -3.65400338043351       -3.13506260248783       -0.06773533837650
H           -1.18557029409116       -3.13392468503209       -0.03415127727398
H            0.05192993021381       -0.99848422810845       -0.07149638999284
H           -1.16439911540228        1.13854493270279       -0.05770441727228
H           -4.89397324465026       -1.01193921963133       -0.05551208358751
I           -4.17162718418601        2.04385728502616        0.18164893853732
C           -4.60582731294113        2.79365164609375       -1.81558267205098
C           -3.71477285432499        3.68149213763596       -2.38720442730549
C           -5.81769289283524        2.46004415638964       -2.38937547333987
C           -4.07183540059388        4.27077004747272       -3.59176475046907
H           -2.77507780138959        3.92734078418644       -1.91881032808359
C           -6.15147171075519        3.06415258004268       -3.59314889624799
H           -6.49725471736070        1.76409911719438       -1.92404546681019
C           -5.28997307748492        3.97551862082067       -4.18300562832995
H           -3.39753298622835        4.97536617717211       -4.05499617722103
H           -7.09778664970389        2.82907465418392       -4.05681341936171
H           -5.57288918728883        4.46386065194165       -5.10333099566415
23
 energy: -34.172591060744 gnorm: 0.001525511395 xtb: 6.5.1 (579679a)
C           -3.11463324929404       -2.19541414376090       -0.07955821094861
C           -1.72879833952526       -2.19242337694533       -0.07498772363561
C           -1.03189075172294       -0.99458269879262       -0.08245961042013
C           -1.71297500290002        0.21346951179110       -0.06524068801926
C           -3.09456212095652        0.17639865075634       -0.05101934417413
C           -3.81881091290790       -1.00066956225642       -0.06244058471312
H           -3.65793099655543       -3.12807176350676       -0.07981902299780
H           -1.18959285353843       -3.12747369277656       -0.05767470198568
H            0.04752017858728       -0.99189907717468       -0.08504274223644
H           -1.16899789504293        1.14447914705363       -0.05178627018518
H           -4.89711013537356       -1.00497561397525       -0.04740462305905
I           -4.17507362060043        2.05000689147098        0.19370352037998
C           -4.60617756949366        2.79464598484387       -1.80486882504076
C           -3.71446469928670        3.68029659616735       -2.38004922991341
C           -5.81602933063282        2.45855952367882       -2.38255745736766
C           -4.06631144423551        4.26142882618190       -3.58919785276975
H           -2.77715413385760        3.92957856427832       -1.90860342324276
C           -6.14522322710964        3.05374621152937       -3.59117477829090
H           -6.49692169058295        1.76581552406434       -1.91428939215476
C           -5.28172002389820        3.96145948695082       -4.18361641306542
H           -3.39076584636103        4.96333746266369       -4.05391964839491
H           -7.08916045647831        2.81507921632463       -4.05708992284452
H           -5.56091587823249        4.44330833143380       -5.10830305492059
23
 energy: -34.172812677036 gnorm: 0.003141474918 xtb: 6.5.1 (579679a)
C           -3.12060861758367       -2.18556592742365       -0.09195854971639
C           -1.73465162392472       -2.18304579838899       -0.10073500590169
C           -1.03804534366780       -0.98489900373889       -0.09699107489068
C           -1.71886479520537        0.22204335640624       -0.06092617799879
C           -3.10085909763586        0.18675612260832       -0.04015446617539
C           -3.82387138586210       -0.99156690344138       -0.05581841440702
H           -3.66357024209939       -3.11788268428870       -0.09673492242498
H           -1.19542924712053       -3.11820020682117       -0.10100141089980
H            0.04087958376415       -0.98225943574179       -0.10562068098308
H           -1.17577471392571        1.15332006921094       -0.03973447791226
H           -4.90192284137668       -0.99490967488910       -0.03090661124352
I           -4.18000598528951        2.05911071958366        0.21153059672279
C           -4.60757245071781        2.79755925224760       -1.78895285282567
C           -3.71490188895475        3.68062505145365       -2.36779321556380
C           -5.81455966726251        2.45755506853987       -2.37142185580869
C           -4.05796295742936        4.24739948038003       -3.58539711416906
H           -2.78213068096789        3.93642994969271       -1.89101594084477
C           -6.13554275483040        3.03788206370505       -3.58862701240864
H           -6.49825092007821        1.77108118446611       -1.89816349313339
C           -5.26758135487969        3.93760841368884       -4.18689223453504
H           -3.38100576448709        4.94597519529659       -4.05201665668007
H           -7.07626658377606        2.79463927928369       -4.05762094045745
H           -5.53920066668802        4.40644442817086       -5.12044748774317
23
 energy: -34.172949107463 gnorm: 0.003151720650 xtb: 6.5.1 (579679a)
C           -3.12462000816228       -2.17899067399607       -0.09947630129812
C           -1.73870362323442       -2.17653847732240       -0.11669741553913
C           -1.04217539926575       -0.97835493426077       -0.10660402030386
C           -1.72272260548955        0.22827464067429       -0.05905610502246
C           -3.10460022825654        0.19278036508389       -0.03361810833104
C           -3.82773299811847       -0.98538910417059       -0.05178864547014
H           -3.66743749299573       -3.11131349007769       -0.10696480280779
H           -1.19956330582522       -3.11162398621337       -0.12898163997496
H            0.03665819211308       -0.97576758048399       -0.11924469380742
H           -1.17969566993067        1.15936014811295       -0.03282503929809
H           -4.90552602653081       -0.98879117536687       -0.02057070518865
I           -4.18363322736279        2.06468897167665        0.22299904244174
C           -4.60844564294438        2.79942647869499       -1.77955198284206
C           -3.71447615606314        3.68035439812852       -2.35957995951136
C           -5.81353580078876        2.45618259274015       -2.36394139065586
C           -4.05248700210551        4.23839873899806       -3.58253900033335
H           -2.78479440413882        3.94106909475352       -1.87961233112198
C           -6.12925826717571        3.02772277600268       -3.58660952199694
H           -6.49918492911180        1.77337580182417       -1.88843532742277
C           -5.25849060569860        3.92255478652597       -4.18821370140114
H           -3.37451908230595        4.93502203924583       -4.05047897907066
H           -7.06803285857815        2.78139506419964       -4.05777941707123
H           -5.52472285802884        4.38226352523103       -5.12782995397336
23
 energy: -34.173078027529 gnorm: 0.002289880268 xtb: 6.5.1 (579679a)
C           -3.12867549025316       -2.17246045893639       -0.10649525422062
C           -1.74287270982548       -2.16982519263416       -0.13214858913325
C           -1.04642874942379       -0.97163910329147       -0.11603935716008
C           -1.72676782666405        0.23488335934145       -0.05774970068079
C           -3.10827469255213        0.19837815964429       -0.02779248476723
C           -3.83191295069299       -0.97917319931612       -0.04823393477814
H           -3.67136986052311       -3.10490921198739       -0.11621848606876
H           -1.20378421394201       -3.10472872869148       -0.15498753334811
H            0.03241755217606       -0.96900748558121       -0.13302763274342
H           -1.18349277416715        1.16558262126735       -0.02788055359926
H           -4.90941822792803       -0.98313503958883       -0.01126751321153
I           -4.18688687215124        2.07035865998554        0.23436071901545
C           -4.60928903294569        2.80105466045705       -1.77072210869494
C           -3.71388297190950        3.67999296364970       -2.35095681412125
C           -5.81223427044922        2.45395956986594       -2.35670924987532
C           -4.04708111036724        4.22968754874262       -3.57926208025306
H           -2.78671134319100        3.94489768379254       -1.86871373957456
C           -6.12292733240376        3.01758407576701       -3.58455858381157
H           -6.50000141070664        1.77455200091890       -1.87959621660512
C           -5.24939470875836        3.90776235107910       -4.18910898913023
H           -3.36794670060745        4.92439464937679       -4.04851860256042
H           -7.06000259678823        2.76847399187487       -4.05777298829891
H           -5.51076170592455        4.35941612426453       -5.13400030637957
23
 energy: -34.173196740385 gnorm: 0.001328064101 xtb: 6.5.1 (579679a)
C           -3.13280702457750       -2.16583799101940       -0.11295741437230
C           -1.74716706133439       -2.16287104534575       -0.14581968349936
C           -1.05075326987552       -0.96474900927030       -0.12565599296767
C           -1.73094113917998        0.24172594882903       -0.05835619572758
C           -3.11200713647820        0.20398928338416       -0.02300776609307
C           -3.83625493236751       -0.97279707562285       -0.04562522810133
H           -3.67543992704428       -3.09844235285220       -0.12473700875732
H           -1.20812777400741       -3.09754781422981       -0.17803926002954
H            0.02813833250511       -0.96196695665512       -0.14682199128234
H           -1.18722850780704        1.17200681328132       -0.02497569861836
H           -4.91350845157679       -0.97757756420289       -0.00338805224942
I           -4.19089086550909        2.07544295729922        0.24558895744542
C           -4.60974409334454        2.80208720013726       -1.76224425493467
C           -3.71251850233538        3.67846937291182       -2.34283505318513
C           -5.81049028051825        2.45102212726354       -2.34965081536082
C           -4.04157330417698        4.22107192641661       -3.57573104359911
H           -2.78793907907512        3.94799685448821       -1.85824682631678
C           -6.11660586541728        3.00764146308239       -3.58218619262718
H           -6.50012697306377        1.77426030831719       -1.87160757428354
C           -5.24082459165844        3.89416123373525       -4.18888885849786
H           -3.36130837523217        4.91412752456824       -4.04607352691881
H           -7.05187126976086        2.75542471092345       -4.05762289482069
H           -5.49770990816325        4.33846208456133       -5.13851762520328
23
 energy: -34.173356890241 gnorm: 0.001422024633 xtb: 6.5.1 (579679a)
C           -3.13902236500492       -2.15606419832824       -0.12202796232601
C           -1.75367663559906       -2.15230118289066       -0.16430777425878
C           -1.05739987852541       -0.95419558009430       -0.13976327646839
C           -1.73753242659403        0.25211916195289       -0.06037964885631
C           -3.11793753744796        0.21247371097833       -0.01733211128343
C           -3.84282492110200       -0.96342358958027       -0.04301820005749
H           -3.68155030035470       -3.08889189946468       -0.13636072945597
H           -1.21463694433643       -3.08652870034396       -0.20694509989087
H            0.02153205196401       -0.95093120959331       -0.16781959685711
H           -1.19325905469667        1.18188576388853       -0.02476988949631
H           -4.91974095845821       -0.96953223597868        0.00584080250375
I           -4.19585139372195        2.08337680896769        0.26206793889889
C           -4.61003700911923        2.80249252897972       -1.74994117737182
C           -3.71043473454467        3.67580205687620       -2.33049818928555
C           -5.80720270614264        2.44525242682391       -2.34008937984747
C           -4.03355063996963        4.20878800880965       -3.56968280405848
H           -2.78850227080513        3.94997374113841       -1.84374255081576
C           -6.10715128326825        2.99284344398007       -3.57865092421329
H           -6.49936423885535        1.77174992367503       -1.86114724647514
C           -5.22855735588172        3.87511778845730       -4.18744929031370
H           -3.35118918912066        4.89894623248982       -4.04168186293895
H           -7.03979869120367        2.73623237618580       -4.05725784564272
H           -5.48001151721022        4.31091462307148       -5.14244318148990
23
 energy: -34.173499194984 gnorm: 0.001958447149 xtb: 6.5.1 (579679a)
C           -3.14504464889041       -2.14653923400434       -0.13015164983421
C           -1.75996971982616       -2.14201761917322       -0.17996918803709
C           -1.06380506879250       -0.94392424491619       -0.15388938886908
C           -1.74387275694294        0.26195129929649       -0.06492893405255
C           -3.12384553621867        0.22110322828199       -0.01290415387408
C           -3.84896198885642       -0.95438082182162       -0.04109053782819
H           -3.68752215947966       -3.07948513237440       -0.14699356191122
H           -1.22089747123077       -3.07588957070843       -0.23076195863465
H            0.01502976656080       -0.94005587050233       -0.18821612902640
H           -1.19935406873535        1.19159141212869       -0.02667464475893
H           -4.92564082502298       -0.96141786590819        0.01334582841373
I           -4.20259665977415        2.08961670960353        0.27755216127689
C           -4.60970471939629        2.80206658073736       -1.73809282792577
C           -3.70746049389574        3.67156799817781       -2.31997397693906
C           -5.80363177539669        2.43952540679716       -2.33109236240447
C           -4.02550945033640        4.19683558608697       -3.56394023504451
H           -2.78861354755350        3.95105316815780       -1.83006452040800
C           -6.09798559897340        2.97884567746824       -3.57490980456600
H           -6.49727863100141        1.76777685532407       -1.85180122303304
C           -5.21735696527033        3.85824528681267       -4.18496133692062
H           -3.34157877436128        4.88497466957766       -4.03680892796653
H           -7.02773624661986        2.71741132629641       -4.05682767406896
H           -5.46436265998421        4.28724515466268       -5.14424495358818
23
 energy: -34.173632413810 gnorm: 0.002001888279 xtb: 6.5.1 (579679a)
C           -3.15098998978538       -2.13744079685828       -0.13804764802009
C           -1.76625494307437       -2.13176496114992       -0.19498290796071
C           -1.07052368614435       -0.93342306383511       -0.16755577893656
C           -1.75072914207649        0.27168058942924       -0.06867615100509
C           -3.13027528276177        0.22966358456104       -0.00911764521486
C           -3.85495998786441       -0.94606205567951       -0.03991806053441
H           -3.69321433194230       -3.07049371800383       -0.15664919980029
H           -1.22699065869513       -3.06510333668078       -0.25190024845271
H            0.00810185712831       -0.92867381369456       -0.20932907499937
H           -1.20652544715743        1.20147037033615       -0.03139830500845
H           -4.93138900405156       -0.95385504646568        0.02034527631724
I           -4.20598094275946        2.09745961488398        0.29257124577426
C           -4.60947589465318        2.80081185335555       -1.72640356984615
C           -3.70561616933717        3.66842407996866       -2.30841486618371
C           -5.79961714238251        2.43259104784061       -2.32367085472976
C           -4.01793071418448        4.18571007251096       -3.55725045858720
H           -2.78828440174669        3.94965095461398       -1.81704891401745
C           -6.08873900907175        2.96467608220668       -3.57173123804790
H           -6.49512319178594        1.76331814190216       -1.84337743651752
C           -5.20636770042663        3.84203304657782       -4.18207860085852
H           -3.33160141238060        4.87058205228776       -4.03149899934269
H           -7.01574531662917        2.69914140516710       -4.05661486108092
H           -5.44946748821577        4.26570389672690       -5.14465170294808
23
 energy: -34.173717517698 gnorm: 0.001634713349 xtb: 6.5.1 (579679a)
C           -3.15484371007650       -2.13140476667155       -0.14276586524861
C           -1.77031034794925       -2.12504577391470       -0.20499361944224
C           -1.07482344201652       -0.92658865425242       -0.17716491381189
C           -1.75505281749721        0.27784882876127       -0.07210187106345
C           -3.13443340843712        0.23541698786325       -0.00640861715859
C           -3.85872938355329       -0.94059551350673       -0.03789288656868
H           -3.69689601871484       -3.06451242688661       -0.16278429608856
H           -1.23093338995451       -3.05805342194418       -0.26599804166350
H            0.00356409156476       -0.92126819950834       -0.22350624197352
H           -1.21122209616871        1.20791219393228       -0.03440136900614
H           -4.93496432865403       -0.94869615988957        0.02557933416125
I           -4.21108947265129        2.10092287618128        0.30232777662278
C           -4.60912350099561        2.80014132300060       -1.71864783249247
C           -3.70385175760999        3.66573970505879       -2.30175151396155
C           -5.79719389685004        2.42899243732703       -2.31827850339325
C           -4.01258301665154        4.17817493869746       -3.55331799792988
H           -2.78836687064069        3.94959612213310       -1.80819000071174
C           -6.08255865528718        2.95562376672110       -3.56946123662163
H           -6.49313469151414        1.76025329107821       -1.83785113061713
C           -5.19892615902759        3.83138721078207       -4.18033214874736
H           -3.32522606478956        4.86170979057365       -4.02789677743188
H           -7.00740575259086        2.68679214405691       -4.05663757595524
H           -5.43959530993243        4.25175330040805       -5.14492467089772
23
 energy: -34.173840281458 gnorm: 0.000993458819 xtb: 6.5.1 (579679a)