 Entering Gaussian System, Link 0=g16
 Input=calc.com
 Output=calc.log
 Initial command:
 /binaries/g16/l1.exe "/calcus/scratch/scr/28/Gau-5877.inp" -scrdir="/calcus/scratch/scr/28/"
 Entering Link 1 = /binaries/g16/l1.exe PID=      5879.
  
 Copyright (c) 1988-2019, Gaussian, Inc.  All Rights Reserved.
  
 This is part of the Gaussian(R) 16 program.  It is based on
 the Gaussian(R) 09 system (copyright 2009, Gaussian, Inc.),
 the Gaussian(R) 03 system (copyright 2003, Gaussian, Inc.),
 the Gaussian(R) 98 system (copyright 1998, Gaussian, Inc.),
 the Gaussian(R) 94 system (copyright 1995, Gaussian, Inc.),
 the Gaussian 92(TM) system (copyright 1992, Gaussian, Inc.),
 the Gaussian 90(TM) system (copyright 1990, Gaussian, Inc.),
 the Gaussian 88(TM) system (copyright 1988, Gaussian, Inc.),
 the Gaussian 86(TM) system (copyright 1986, Carnegie Mellon
 University), and the Gaussian 82(TM) system (copyright 1983,
 Carnegie Mellon University). Gaussian is a federally registered
 trademark of Gaussian, Inc.
  
 This software contains proprietary and confidential information,
 including trade secrets, belonging to Gaussian, Inc.
  
 This software is provided under written license and may be
 used, copied, transmitted, or stored only in accord with that
 written license.
  
 The following legend is applicable only to US Government
 contracts under FAR:
  
                    RESTRICTED RIGHTS LEGEND
  
 Use, reproduction and disclosure by the US Government is
 subject to restrictions as set forth in subparagraphs (a)
 and (c) of the Commercial Computer Software - Restricted
 Rights clause in FAR 52.227-19.
  
 Gaussian, Inc.
 340 Quinnipiac St., Bldg. 40, Wallingford CT 06492
  
  
 ---------------------------------------------------------------
 Warning -- This program may not be used in any manner that
 competes with the business of Gaussian, Inc. or will provide
 assistance to any competitor of Gaussian, Inc.  The licensee
 of this program is prohibited from giving any competitor of
 Gaussian, Inc. access to this program.  By using this program,
 the user acknowledges that Gaussian, Inc. is engaged in the
 business of creating and licensing software in the field of
 computational chemistry and represents and warrants to the
 licensee that it is not a competitor of Gaussian, Inc. and that
 it will not use this program in any manner prohibited above.
 ---------------------------------------------------------------
  

 Cite this work as:
 Gaussian 16, Revision C.01,
 M. J. Frisch, G. W. Trucks, H. B. Schlegel, G. E. Scuseria, 
 M. A. Robb, J. R. Cheeseman, G. Scalmani, V. Barone, 
 G. A. Petersson, H. Nakatsuji, X. Li, M. Caricato, A. V. Marenich, 
 J. Bloino, B. G. Janesko, R. Gomperts, B. Mennucci, H. P. Hratchian, 
 J. V. Ortiz, A. F. Izmaylov, J. L. Sonnenberg, D. Williams-Young, 
 F. Ding, F. Lipparini, F. Egidi, J. Goings, B. Peng, A. Petrone, 
 T. Henderson, D. Ranasinghe, V. G. Zakrzewski, J. Gao, N. Rega, 
 G. Zheng, W. Liang, M. Hada, M. Ehara, K. Toyota, R. Fukuda, 
 J. Hasegawa, M. Ishida, T. Nakajima, Y. Honda, O. Kitao, H. Nakai, 
 T. Vreven, K. Throssell, J. A. Montgomery, Jr., J. E. Peralta, 
 F. Ogliaro, M. J. Bearpark, J. J. Heyd, E. N. Brothers, K. N. Kudin, 
 V. N. Staroverov, T. A. Keith, R. Kobayashi, J. Normand, 
 K. Raghavachari, A. P. Rendell, J. C. Burant, S. S. Iyengar, 
 J. Tomasi, M. Cossi, J. M. Millam, M. Klene, C. Adamo, R. Cammi, 
 J. W. Ochterski, R. L. Martin, K. Morokuma, O. Farkas, 
 J. B. Foresman, and D. J. Fox, Gaussian, Inc., Wallingford CT, 2019.
 
 ******************************************
 Gaussian 16:  ES64L-G16RevC.01  3-Jul-2019
                29-May-2022 
 ******************************************
 %chk=in.chk
 %nproc=4
 Will use up to    4 processors via shared memory.
 %mem=2000MB
 ---------------------------------------------
 #p opt(ts, NoEigenTest, CalcFC) M062X/Def2SVP
 ---------------------------------------------
 1/5=1,10=4,11=1,18=20,26=3,38=1/1,3;
 2/9=110,12=2,17=6,18=5,40=1/2;
 3/5=43,7=101,11=2,25=1,30=1,71=2,74=-55,140=1/1,2,3;
 4//1;
 5/5=2,38=5/2;
 8/6=4,10=90,11=11/1;
 11/6=1,8=1,9=11,15=111,16=1/1,2,10;
 10/6=1,13=1/2;
 6/7=2,8=2,9=2,10=2,28=1/1;
 7/10=1,25=1/1,2,3,16;
 1/5=1,10=4,11=1,18=20,26=3/3(2);
 2/9=110/2;
 99//99;
 2/9=110/2;
 3/5=43,7=101,11=2,25=1,30=1,71=1,74=-55/1,2,3;
 4/5=5,16=3,69=1/1;
 5/5=2,38=5/2;
 7//1,2,3,16;
 1/5=1,11=1,18=20,26=3/3(-5);
 2/9=110/2;
 6/7=2,8=2,9=2,10=2,19=2,28=1/1;
 99/9=1/99;
 Leave Link    1 at Sun May 29 19:30:16 2022, MaxMem=   262144000 cpu:               0.1 elap:               0.0
 (Enter /binaries/g16/l101.exe)
 -----------------------
 File created by ccinput
 -----------------------
 Symbolic Z-matrix:
 Charge =  0 Multiplicity = 1
 N                     1.08764  -0.33995  -0.00973 
 H                     1.99827   0.05503   0.00651 
 H                     0.59454  -0.4856    0.83949 
 H                     0.66998  -0.5893   -0.87512 
 
 ITRead=  0  0  0  0
 MicOpt= -1 -1 -1 -1
 NAtoms=      4 NQM=        4 NQMF=       0 NMMI=      0 NMMIF=      0
                NMic=       0 NMicF=      0.
                    Isotopes and Nuclear Properties:
 (Nuclear quadrupole moments (NQMom) in fm**2, nuclear magnetic moments (NMagM)
  in nuclear magnetons)

  Atom         1           2           3           4
 IAtWgt=          14           1           1           1
 AtmWgt=  14.0030740   1.0078250   1.0078250   1.0078250
 NucSpn=           2           1           1           1
 AtZEff=  -0.0000000  -0.0000000  -0.0000000  -0.0000000
 NQMom=    2.0440000   0.0000000   0.0000000   0.0000000
 NMagM=    0.4037610   2.7928460   2.7928460   2.7928460
 AtZNuc=   7.0000000   1.0000000   1.0000000   1.0000000
 Leave Link  101 at Sun May 29 19:30:16 2022, MaxMem=   262144000 cpu:               0.5 elap:               0.1
 (Enter /binaries/g16/l103.exe)

 GradGradGradGradGradGradGradGradGradGradGradGradGradGradGradGradGradGrad
 Berny optimization.
 Initialization pass.
                           ----------------------------
                           !    Initial Parameters    !
                           ! (Angstroms and Degrees)  !
 --------------------------                            --------------------------
 ! Name  Definition              Value          Derivative Info.                !
 --------------------------------------------------------------------------------
 ! R1    R(1,2)                  0.9927         calculate D2E/DX2 analytically  !
 ! R2    R(1,3)                  0.9927         calculate D2E/DX2 analytically  !
 ! R3    R(1,4)                  0.9927         calculate D2E/DX2 analytically  !
 ! A1    A(2,1,3)              120.0007         calculate D2E/DX2 analytically  !
 ! A2    A(2,1,4)              120.0077         calculate D2E/DX2 analytically  !
 ! A3    A(3,1,4)              119.9916         calculate D2E/DX2 analytically  !
 ! D1    D(2,1,4,3)           -179.9991         calculate D2E/DX2 analytically  !
 --------------------------------------------------------------------------------
 Trust Radius=3.00D-01 FncErr=1.00D-07 GrdErr=1.00D-06 EigMax=2.50D+02 EigMin=1.00D-04
 Number of steps in this run=     20 maximum allowed number of steps=    100.
 Search for a saddle point of order  1.
 GradGradGradGradGradGradGradGradGradGradGradGradGradGradGradGradGradGrad

 Leave Link  103 at Sun May 29 19:30:16 2022, MaxMem=   262144000 cpu:               0.0 elap:               0.0
 (Enter /binaries/g16/l202.exe)
                          Input orientation:                          
 ---------------------------------------------------------------------
 Center     Atomic      Atomic             Coordinates (Angstroms)
 Number     Number       Type             X           Y           Z
 ---------------------------------------------------------------------
      1          7           0        1.087641   -0.339946   -0.009725
      2          1           0        1.998268    0.055028    0.006512
      3          1           0        0.594540   -0.485602    0.839492
      4          1           0        0.669981   -0.589301   -0.875119
 ---------------------------------------------------------------------
                    Distance matrix (angstroms):
                    1          2          3          4
     1  N    0.000000
     2  H    0.992729   0.000000
     3  H    0.992741   1.719474   0.000000
     4  H    0.992736   1.719530   1.719401   0.000000
 Stoichiometry    H3N
 Framework group  C1[X(H3N)]
 Deg. of freedom     6
 Full point group                 C1      NOp   1
 Largest Abelian subgroup         C1      NOp   1
 Largest concise Abelian subgroup C1      NOp   1
                         Standard orientation:                         
 ---------------------------------------------------------------------
 Center     Atomic      Atomic             Coordinates (Angstroms)
 Number     Number       Type             X           Y           Z
 ---------------------------------------------------------------------
      1          7           0        0.000012    0.000009   -0.000001
      2          1           0        0.967933    0.220553    0.000003
      3          1           0       -0.292968   -0.948515    0.000003
      4          1           0       -0.675048    0.727896    0.000003
 ---------------------------------------------------------------------
 Rotational constants (GHZ):         339.2435669         339.1845272         169.6070223
 Leave Link  202 at Sun May 29 19:30:16 2022, MaxMem=   262144000 cpu:               0.0 elap:               0.0
 (Enter /binaries/g16/l301.exe)
 Standard basis: def2SVP (5D, 7F)
 Ernie: Thresh=  0.10000D-02 Tol=  0.10000D-05 Strict=F.
 There are    30 symmetry adapted cartesian basis functions of A   symmetry.
 There are    29 symmetry adapted basis functions of A   symmetry.
    29 basis functions,    46 primitive gaussians,    30 cartesian basis functions
     5 alpha electrons        5 beta electrons
       nuclear repulsion energy        12.1173112881 Hartrees.
 IExCor= 4336 DFT=T Ex+Corr=M062X ExCW=0 ScaHFX=  0.540000
 ScaDFX=  1.000000  1.000000  1.000000  1.000000 ScalE2=  1.000000  1.000000
 IRadAn=      5 IRanWt=     -1 IRanGd=            0 ICorTp=0 IEmpDi=  4
 NAtoms=    4 NActive=    4 NUniq=    4 SFac= 1.00D+00 NAtFMM=   60 NAOKFM=F Big=F
 Integral buffers will be    131072 words long.
 Raffenetti 2 integral format.
 Two-electron integral symmetry is turned on.
 Leave Link  301 at Sun May 29 19:30:16 2022, MaxMem=   262144000 cpu:               0.1 elap:               0.0
 (Enter /binaries/g16/l302.exe)
 NPDir=0 NMtPBC=     1 NCelOv=     1 NCel=       1 NClECP=     1 NCelD=      1
         NCelK=      1 NCelE2=     1 NClLst=     1 CellRange=     0.0.
 One-electron integrals computed using PRISM.
 One-electron integral symmetry used in STVInt
   1 Symmetry operations used in ECPInt.
 ECPInt:  NShTT=     120 NPrTT=     400 LenC2=     121 LenP2D=     397.
 LDataN:  DoStor=T MaxTD1= 4 Len=   56
 NBasis=    29 RedAO= T EigKep=  3.44D-02  NBF=    29
 NBsUse=    29 1.00D-06 EigRej= -1.00D+00 NBFU=    29
 Precomputing XC quadrature grid using
 IXCGrd= 4 IRadAn=           5 IRanWt=          -1 IRanGd=           0 AccXCQ= 0.00D+00.
 Generated NRdTot=       0 NPtTot=           0 NUsed=           0 NTot=          32
 NSgBfM=    30    30    30    30    30 MxSgAt=     4 MxSgA2=     4.
 Leave Link  302 at Sun May 29 19:30:16 2022, MaxMem=   262144000 cpu:               0.3 elap:               0.1
 (Enter /binaries/g16/l303.exe)
 DipDrv:  MaxL=1.
 Leave Link  303 at Sun May 29 19:30:16 2022, MaxMem=   262144000 cpu:               0.1 elap:               0.0
 (Enter /binaries/g16/l401.exe)
 ExpMin= 1.22D-01 ExpMax= 1.71D+03 ExpMxC= 2.58D+02 IAcc=3 IRadAn=         5 AccDes= 0.00D+00
 Harris functional with IExCor= 1009 and IRadAn=       5 diagonalized for initial guess.
 HarFok:  IExCor= 1009 AccDes= 0.00D+00 IRadAn=         5 IDoV= 1 UseB2=F ITyADJ=14
 ICtDFT=  3500011 ScaDFX=  1.000000  1.000000  1.000000  1.000000
 FoFCou: FMM=F IPFlag=           0 FMFlag=      100000 FMFlg1=           0
         NFxFlg=           0 DoJE=T BraDBF=F KetDBF=T FulRan=T
         wScrn=  0.000000 ICntrl=       500 IOpCl=  0 I1Cent=   200000004 NGrid=           0
         NMat0=    1 NMatS0=      1 NMatT0=    0 NMatD0=    1 NMtDS0=    0 NMtDT0=    0
 Petite list used in FoFCou.
 Harris En= -56.4765695672815    
 JPrj=0 DoOrth=F DoCkMO=F.
 Leave Link  401 at Sun May 29 19:30:16 2022, MaxMem=   262144000 cpu:               0.4 elap:               0.1
 (Enter /binaries/g16/l502.exe)
 Keep R1 ints in memory in canonical form, NReq=3553076.
 FoFCou: FMM=F IPFlag=           0 FMFlag=           0 FMFlg1=           0
         NFxFlg=           0 DoJE=F BraDBF=F KetDBF=F FulRan=T
         wScrn=  0.000000 ICntrl=       600 IOpCl=  0 I1Cent=           0 NGrid=           0
         NMat0=    1 NMatS0=    435 NMatT0=    0 NMatD0=    1 NMtDS0=    0 NMtDT0=    0
 Symmetry not used in FoFCou.
 Two-electron integral symmetry not used.
 Closed shell SCF:
 Using DIIS extrapolation, IDIIS=  1040.
 NGot=   262144000 LenX=   262046592 LenY=   262045251
 Requested convergence on RMS density matrix=1.00D-08 within 128 cycles.
 Requested convergence on MAX density matrix=1.00D-06.
 Requested convergence on             energy=1.00D-06.
 No special actions if energy rises.
 Integral accuracy reduced to 1.0D-05 until final iterations.

 Cycle   1  Pass 0  IDiag  1:
 E= -56.3822232288828    
 DIIS: error= 5.85D-02 at cycle   1 NSaved=   1.
 NSaved= 1 IEnMin= 1 EnMin= -56.3822232288828     IErMin= 1 ErrMin= 5.85D-02
 ErrMax= 5.85D-02  0.00D+00 EMaxC= 1.00D-01 BMatC= 9.62D-02 BMatP= 9.62D-02
 IDIUse=3 WtCom= 4.15D-01 WtEn= 5.85D-01
 Coeff-Com:  0.100D+01
 Coeff-En:   0.100D+01
 Coeff:      0.100D+01
 Gap=     0.278 Goal=   None    Shift=    0.000
 GapD=    0.278 DampG=1.000 DampE=0.500 DampFc=0.5000 IDamp=-1.
 Damping current iteration by 5.00D-01
 RMSDP=1.35D-02 MaxDP=1.65D-01              OVMax= 1.52D-01

 Cycle   2  Pass 0  IDiag  1:
 E= -56.4236968444514     Delta-E=       -0.041473615569 Rises=F Damp=T
 DIIS: error= 1.25D-02 at cycle   2 NSaved=   2.
 NSaved= 2 IEnMin= 2 EnMin= -56.4236968444514     IErMin= 2 ErrMin= 1.25D-02
 ErrMax= 1.25D-02  0.00D+00 EMaxC= 1.00D-01 BMatC= 1.57D-03 BMatP= 9.62D-02
 IDIUse=3 WtCom= 8.75D-01 WtEn= 1.25D-01
 Coeff-Com: -0.209D-01 0.102D+01
 Coeff-En:   0.000D+00 0.100D+01
 Coeff:     -0.183D-01 0.102D+01
 Gap=     0.389 Goal=   None    Shift=    0.000
 RMSDP=8.35D-04 MaxDP=6.93D-03 DE=-4.15D-02 OVMax= 7.23D-02

 Cycle   3  Pass 0  IDiag  1:
 E= -56.4636693741328     Delta-E=       -0.039972529681 Rises=F Damp=F
 DIIS: error= 4.53D-04 at cycle   3 NSaved=   3.
 NSaved= 3 IEnMin= 3 EnMin= -56.4636693741328     IErMin= 3 ErrMin= 4.53D-04
 ErrMax= 4.53D-04  0.00D+00 EMaxC= 1.00D-01 BMatC= 3.55D-06 BMatP= 1.57D-03
 IDIUse=3 WtCom= 9.95D-01 WtEn= 4.53D-03
 Coeff-Com:  0.401D-02-0.287D-01 0.102D+01
 Coeff-En:   0.000D+00 0.000D+00 0.100D+01
 Coeff:      0.399D-02-0.286D-01 0.102D+01
 Gap=     0.394 Goal=   None    Shift=    0.000
 RMSDP=7.86D-05 MaxDP=7.85D-04 DE=-4.00D-02 OVMax= 6.57D-04

 Cycle   4  Pass 0  IDiag  1:
 E= -56.4636729166345     Delta-E=       -0.000003542502 Rises=F Damp=F
 DIIS: error= 9.88D-05 at cycle   4 NSaved=   4.
 NSaved= 4 IEnMin= 4 EnMin= -56.4636729166345     IErMin= 4 ErrMin= 9.88D-05
 ErrMax= 9.88D-05  0.00D+00 EMaxC= 1.00D-01 BMatC= 1.25D-07 BMatP= 3.55D-06
 IDIUse=1 WtCom= 1.00D+00 WtEn= 0.00D+00
 Coeff-Com:  0.606D-03 0.142D-02-0.116D+00 0.111D+01
 Coeff:      0.606D-03 0.142D-02-0.116D+00 0.111D+01
 Gap=     0.394 Goal=   None    Shift=    0.000
 RMSDP=1.44D-05 MaxDP=2.40D-04 DE=-3.54D-06 OVMax= 2.01D-04

 Cycle   5  Pass 0  IDiag  1:
 E= -56.4636730693081     Delta-E=       -0.000000152674 Rises=F Damp=F
 DIIS: error= 7.54D-06 at cycle   5 NSaved=   5.
 NSaved= 5 IEnMin= 5 EnMin= -56.4636730693081     IErMin= 5 ErrMin= 7.54D-06
 ErrMax= 7.54D-06  0.00D+00 EMaxC= 1.00D-01 BMatC= 1.06D-09 BMatP= 1.25D-07
 IDIUse=1 WtCom= 1.00D+00 WtEn= 0.00D+00
 Coeff-Com: -0.198D-03 0.173D-03 0.610D-02-0.168D+00 0.116D+01
 Coeff:     -0.198D-03 0.173D-03 0.610D-02-0.168D+00 0.116D+01
 Gap=     0.394 Goal=   None    Shift=    0.000
 RMSDP=1.78D-06 MaxDP=2.33D-05 DE=-1.53D-07 OVMax= 1.96D-05

 Initial convergence to 1.0D-05 achieved.  Increase integral accuracy.
 Cycle   6  Pass 1  IDiag  1:
 E= -56.4636669928095     Delta-E=        0.000006076499 Rises=F Damp=F
 DIIS: error= 2.18D-05 at cycle   1 NSaved=   1.
 NSaved= 1 IEnMin= 1 EnMin= -56.4636669928095     IErMin= 1 ErrMin= 2.18D-05
 ErrMax= 2.18D-05  0.00D+00 EMaxC= 1.00D-01 BMatC= 1.34D-08 BMatP= 1.34D-08
 IDIUse=1 WtCom= 1.00D+00 WtEn= 0.00D+00
 Coeff-Com:  0.100D+01
 Coeff:      0.100D+01
 Gap=     0.394 Goal=   None    Shift=    0.000
 RMSDP=1.78D-06 MaxDP=2.33D-05 DE= 6.08D-06 OVMax= 3.67D-05

 Cycle   7  Pass 1  IDiag  1:
 E= -56.4636670057686     Delta-E=       -0.000000012959 Rises=F Damp=F
 DIIS: error= 3.38D-06 at cycle   2 NSaved=   2.
 NSaved= 2 IEnMin= 2 EnMin= -56.4636670057686     IErMin= 2 ErrMin= 3.38D-06
 ErrMax= 3.38D-06  0.00D+00 EMaxC= 1.00D-01 BMatC= 1.85D-10 BMatP= 1.34D-08
 IDIUse=1 WtCom= 1.00D+00 WtEn= 0.00D+00
 Coeff-Com: -0.713D-01 0.107D+01
 Coeff:     -0.713D-01 0.107D+01
 Gap=     0.394 Goal=   None    Shift=    0.000
 RMSDP=5.58D-07 MaxDP=8.20D-06 DE=-1.30D-08 OVMax= 6.73D-06

 Cycle   8  Pass 1  IDiag  1:
 E= -56.4636670059411     Delta-E=       -0.000000000173 Rises=F Damp=F
 DIIS: error= 1.41D-06 at cycle   3 NSaved=   3.
 NSaved= 3 IEnMin= 3 EnMin= -56.4636670059411     IErMin= 3 ErrMin= 1.41D-06
 ErrMax= 1.41D-06  0.00D+00 EMaxC= 1.00D-01 BMatC= 4.68D-11 BMatP= 1.85D-10
 IDIUse=1 WtCom= 1.00D+00 WtEn= 0.00D+00
 Coeff-Com: -0.341D-01 0.379D+00 0.655D+00
 Coeff:     -0.341D-01 0.379D+00 0.655D+00
 Gap=     0.394 Goal=   None    Shift=    0.000
 RMSDP=1.83D-07 MaxDP=1.95D-06 DE=-1.73D-10 OVMax= 2.34D-06

 Cycle   9  Pass 1  IDiag  1:
 E= -56.4636670059776     Delta-E=       -0.000000000037 Rises=F Damp=F
 DIIS: error= 3.96D-07 at cycle   4 NSaved=   4.
 NSaved= 4 IEnMin= 4 EnMin= -56.4636670059776     IErMin= 4 ErrMin= 3.96D-07
 ErrMax= 3.96D-07  0.00D+00 EMaxC= 1.00D-01 BMatC= 3.40D-12 BMatP= 4.68D-11
 IDIUse=1 WtCom= 1.00D+00 WtEn= 0.00D+00
 Coeff-Com: -0.211D-02-0.666D-02 0.202D+00 0.807D+00
 Coeff:     -0.211D-02-0.666D-02 0.202D+00 0.807D+00
 Gap=     0.394 Goal=   None    Shift=    0.000
 RMSDP=4.78D-08 MaxDP=7.85D-07 DE=-3.65D-11 OVMax= 6.65D-07

 Cycle  10  Pass 1  IDiag  1:
 E= -56.4636670059808     Delta-E=       -0.000000000003 Rises=F Damp=F
 DIIS: error= 2.63D-08 at cycle   5 NSaved=   5.
 NSaved= 5 IEnMin= 5 EnMin= -56.4636670059808     IErMin= 5 ErrMin= 2.63D-08
 ErrMax= 2.63D-08  0.00D+00 EMaxC= 1.00D-01 BMatC= 2.03D-14 BMatP= 3.40D-12
 IDIUse=1 WtCom= 1.00D+00 WtEn= 0.00D+00
 Coeff-Com:  0.854D-03-0.104D-01-0.141D-01 0.180D-01 0.101D+01
 Coeff:      0.854D-03-0.104D-01-0.141D-01 0.180D-01 0.101D+01
 Gap=     0.394 Goal=   None    Shift=    0.000
 RMSDP=5.60D-09 MaxDP=6.66D-08 DE=-3.21D-12 OVMax= 7.05D-08

 SCF Done:  E(RM062X) =  -56.4636670060     A.U. after   10 cycles
            NFock= 10  Conv=0.56D-08     -V/T= 2.0097
 KE= 5.592216934608D+01 PE=-1.559628485870D+02 EE= 3.145970094676D+01
 Leave Link  502 at Sun May 29 19:30:17 2022, MaxMem=   262144000 cpu:               1.9 elap:               0.5
 (Enter /binaries/g16/l801.exe)
 DoSCS=F DFT=T ScalE2(SS,OS)=  1.000000  1.000000
 Range of M.O.s used for correlation:     1    29
 NBasis=    29 NAE=     5 NBE=     5 NFC=     0 NFV=     0
 NROrb=     29 NOA=     5 NOB=     5 NVA=    24 NVB=    24
 Leave Link  801 at Sun May 29 19:30:17 2022, MaxMem=   262144000 cpu:               0.1 elap:               0.0
 (Enter /binaries/g16/l1101.exe)
 Using compressed storage, NAtomX=     4.
 Will process      5 centers per pass.
   1 Symmetry operations used in ECPInt.
 ECPInt:  NShTT=     120 NPrTT=     400 LenC2=     121 LenP2D=     397.
 LDataN:  DoStor=T MaxTD1= 5 Len=  102
 Leave Link 1101 at Sun May 29 19:30:17 2022, MaxMem=   262144000 cpu:               0.2 elap:               0.1
 (Enter /binaries/g16/l1102.exe)
 Symmetrizing basis deriv contribution to polar:
 IMax=3 JMax=2 DiffMx= 0.00D+00
 Leave Link 1102 at Sun May 29 19:30:17 2022, MaxMem=   262144000 cpu:               0.1 elap:               0.0
 (Enter /binaries/g16/l1110.exe)
 Forming Gx(P) for the SCF density, NAtomX=     4.
 Integral derivatives from FoFJK, PRISM(SPDF).
 Do as many integral derivatives as possible in FoFJK.
 G2DrvN: MDV=     262143460.
 G2DrvN: will do     5 centers at a time, making    1 passes.
 Calling FoFCou, ICntrl=  3107 FMM=F I1Cent=   0 AccDes= 0.00D+00.
 FoFJK:  IHMeth= 1 ICntrl=    3107 DoSepK=F KAlg= 0 I1Cent=           0 FoldK=F
 IRaf=         0 NMat=       1 IRICut=       1 DoRegI=T DoRafI=F ISym2E= 0 IDoP0=0 IntGTp=1.
 FoFCou: FMM=F IPFlag=           0 FMFlag=      100000 FMFlg1=           0
         NFxFlg=           0 DoJE=F BraDBF=F KetDBF=F FulRan=T
         wScrn=  0.000000 ICntrl=      3107 IOpCl=  0 I1Cent=           0 NGrid=           0
         NMat0=    1 NMatS0=      1 NMatT0=    0 NMatD0=    1 NMtDS0=    0 NMtDT0=    0
 Symmetry not used in FoFCou.
 End of G2Drv F.D. properties file   721 does not exist.
 End of G2Drv F.D. properties file   722 does not exist.
 End of G2Drv F.D. properties file   788 does not exist.
 Leave Link 1110 at Sun May 29 19:30:17 2022, MaxMem=   262144000 cpu:               1.5 elap:               0.4
 (Enter /binaries/g16/l1002.exe)
 Minotr:  Closed shell wavefunction.
          IDoAtm=1111
          Direct CPHF calculation.
          Differentiating once with respect to nuclear coordinates.
          Requested convergence is 1.0D-08 RMS, and 1.0D-07 maximum.
          Secondary convergence is 1.0D-12 RMS, and 1.0D-12 maximum.
          NewPWx=T KeepS1=F KeepF1=F KeepIn=T MapXYZ=F SortEE=F KeepMc=T.
         1165 words used for storage of precomputed grid.
 Keep R1 ints in memory in canonical form, NReq=3542770.
 FoFCou: FMM=F IPFlag=           0 FMFlag=           0 FMFlg1=           0
         NFxFlg=           0 DoJE=F BraDBF=F KetDBF=F FulRan=T
         wScrn=  0.000000 ICntrl=       600 IOpCl=  0 I1Cent=           0 NGrid=           0
         NMat0=    1 NMatS0=    435 NMatT0=    0 NMatD0=    1 NMtDS0=    0 NMtDT0=    0
 Symmetry not used in FoFCou.
 Two-electron integral symmetry not used.
          MDV=     262144000 using IRadAn=       1.
          Solving linear equations simultaneously, MaxMat=       0.
          There are    15 degrees of freedom in the 1st order CPHF.  IDoFFX=6 NUNeed=     0.
      9 vectors produced by pass  0 Test12= 8.00D-16 6.67D-09 XBig12= 4.18D-02 1.32D-01.
 AX will form     9 AO Fock derivatives at one time.
      9 vectors produced by pass  1 Test12= 8.00D-16 6.67D-09 XBig12= 1.78D-03 2.36D-02.
      9 vectors produced by pass  2 Test12= 8.00D-16 6.67D-09 XBig12= 3.02D-05 2.82D-03.
      9 vectors produced by pass  3 Test12= 8.00D-16 6.67D-09 XBig12= 5.67D-07 4.16D-04.
      9 vectors produced by pass  4 Test12= 8.00D-16 6.67D-09 XBig12= 7.12D-10 1.60D-05.
      6 vectors produced by pass  5 Test12= 8.00D-16 6.67D-09 XBig12= 9.06D-13 6.09D-07.
      4 vectors produced by pass  6 Test12= 8.00D-16 6.67D-09 XBig12= 1.95D-15 1.59D-08.
 InvSVY:  IOpt=1 It=  1 EMax= 9.99D-16
 Solved reduced A of dimension    55 with     9 vectors.
 End of Minotr F.D. properties file   721 does not exist.
 End of Minotr F.D. properties file   722 does not exist.
 End of Minotr F.D. properties file   788 does not exist.
 Leave Link 1002 at Sun May 29 19:30:17 2022, MaxMem=   262144000 cpu:               1.6 elap:               0.4
 (Enter /binaries/g16/l601.exe)
 Copying SCF densities to generalized density rwf, IOpCl= 0 IROHF=0.

 **********************************************************************

            Population analysis using the SCF Density.

 **********************************************************************

 Orbital symmetries:
       Occupied  (A) (A) (A) (A) (A)
       Virtual   (A) (A) (A) (A) (A) (A) (A) (A) (A) (A) (A) (A)
                 (A) (A) (A) (A) (A) (A) (A) (A) (A) (A) (A) (A)
 The electronic state is 1-A.
 Alpha  occ. eigenvalues --  -14.70474  -0.91013  -0.53550  -0.53547  -0.28658
 Alpha virt. eigenvalues --    0.10762   0.19002   0.19002   0.62685   0.62693
 Alpha virt. eigenvalues --    0.65521   0.82176   0.90060   0.90061   0.91797
 Alpha virt. eigenvalues --    1.34820   1.34823   1.59658   1.86268   1.86273
 Alpha virt. eigenvalues --    1.89194   2.19717   2.44274   2.44283   2.71497
 Alpha virt. eigenvalues --    2.71505   3.26722   3.32966   3.32978
          Condensed to atoms (all electrons):
               1          2          3          4
     1  N    6.158113   0.404975   0.404968   0.404971
     2  H    0.404975   0.533298  -0.031313  -0.031311
     3  H    0.404968  -0.031313   0.533323  -0.031315
     4  H    0.404971  -0.031311  -0.031315   0.533314
 Mulliken charges:
               1
     1  N   -0.373029
     2  H    0.124351
     3  H    0.124337
     4  H    0.124341
 Sum of Mulliken charges =  -0.00000
 Mulliken charges with hydrogens summed into heavy atoms:
               1
     1  N   -0.000000
 APT charges:
               1
     1  N   -0.976988
     2  H    0.325671
     3  H    0.325656
     4  H    0.325661
 Sum of APT charges =  -0.00000
 APT charges with hydrogens summed into heavy atoms:
               1
     1  N   -0.000000
 Electronic spatial extent (au):  <R**2>=             25.4923
 Charge=             -0.0000 electrons
 Dipole moment (field-independent basis, Debye):
    X=             -0.0001    Y=             -0.0001    Z=              0.0000  Tot=              0.0001
 Quadrupole moment (field-independent basis, Debye-Ang):
   XX=             -5.5684   YY=             -5.5690   ZZ=             -8.9496
   XY=              0.0000   XZ=              0.0000   YZ=              0.0000
 Traceless Quadrupole moment (field-independent basis, Debye-Ang):
   XX=              1.1273   YY=              1.1267   ZZ=             -2.2540
   XY=              0.0000   XZ=              0.0000   YZ=              0.0000
 Octapole moment (field-independent basis, Debye-Ang**2):
  XXX=              0.8002  YYY=             -0.6369  ZZZ=              0.0000  XYY=             -0.8002
  XXY=              0.6368  XXZ=              0.0000  XZZ=             -0.0000  YZZ=             -0.0000
  YYZ=              0.0000  XYZ=             -0.0000
 Hexadecapole moment (field-independent basis, Debye-Ang**3):
 XXXX=             -8.8682 YYYY=             -8.8685 ZZZZ=             -7.9456 XXXY=             -0.0001
 XXXZ=              0.0000 YYYX=              0.0001 YYYZ=             -0.0000 ZZZX=              0.0000
 ZZZY=              0.0000 XXYY=             -2.9561 XXZZ=             -3.1665 YYZZ=             -3.1664
 XXYZ=              0.0000 YYXZ=             -0.0000 ZZXY=              0.0000
 N-N= 1.211731128815D+01 E-N=-1.559628482545D+02  KE= 5.592216934608D+01
  Exact polarizability:       0.000       0.000       0.000       0.000       0.000       0.000
 Approx polarizability:       8.666      -0.000       8.665      -0.000      -0.000       4.987
 No NMR shielding tensors so no spin-rotation constants.
 Leave Link  601 at Sun May 29 19:30:17 2022, MaxMem=   262144000 cpu:               0.3 elap:               0.1
 (Enter /binaries/g16/l701.exe)
 ... and contract with generalized density number  0.
 Compute integral second derivatives.
   1 Symmetry operations used in ECPInt.
 ECPInt:  NShTT=     120 NPrTT=     400 LenC2=     121 LenP2D=     397.
 LDataN:  DoStor=T MaxTD1= 6 Len=  172
 Leave Link  701 at Sun May 29 19:30:18 2022, MaxMem=   262144000 cpu:               0.3 elap:               0.1
 (Enter /binaries/g16/l702.exe)
 L702 exits ... SP integral derivatives will be done elsewhere.
 Leave Link  702 at Sun May 29 19:30:18 2022, MaxMem=   262144000 cpu:               0.1 elap:               0.0
 (Enter /binaries/g16/l703.exe)
 Integral derivatives from FoFJK, PRISM(SPDF).
 Compute integral second derivatives, UseDBF=F ICtDFT=           0.
 Calling FoFJK, ICntrl=    100127 FMM=F ISym2X=0 I1Cent= 0 IOpClX= 0 NMat=1 NMatS=1 NMatT=0.
 FoFJK:  IHMeth= 1 ICntrl=  100127 DoSepK=F KAlg= 0 I1Cent=           0 FoldK=F
 IRaf=         0 NMat=       1 IRICut=       1 DoRegI=T DoRafI=F ISym2E= 0 IDoP0=0 IntGTp=1.
 FoFCou: FMM=F IPFlag=           0 FMFlag=      100000 FMFlg1=         800
         NFxFlg=           0 DoJE=F BraDBF=F KetDBF=F FulRan=T
         wScrn=  0.000000 ICntrl=    100127 IOpCl=  0 I1Cent=           0 NGrid=           0
         NMat0=    1 NMatS0=      1 NMatT0=    0 NMatD0=    1 NMtDS0=    0 NMtDT0=    0
 Symmetry not used in FoFCou.
 Leave Link  703 at Sun May 29 19:30:18 2022, MaxMem=   262144000 cpu:               2.5 elap:               0.6
 (Enter /binaries/g16/l716.exe)
 Dipole        =-3.37854758D-05-2.88060998D-05 9.72402888D-06
 Polarizability= 0.00000000D+00 0.00000000D+00 0.00000000D+00
                 0.00000000D+00 0.00000000D+00 0.00000000D+00
 ***** Axes restored to original set *****
 -------------------------------------------------------------------
 Center     Atomic                   Forces (Hartrees/Bohr)
 Number     Number              X              Y              Z
 -------------------------------------------------------------------
      1        7          -0.000015196   -0.000006906    0.000005480
      2        1           0.009424209    0.004086892    0.000156048
      3        1          -0.005094003   -0.001503064    0.008790982
      4        1          -0.004315010   -0.002576922   -0.008952510
 -------------------------------------------------------------------
 Cartesian Forces:  Max     0.009424209 RMS     0.005135171
 Force constants in Cartesian coordinates: 
                1             2             3             4             5 
      1  0.743471D+00
      2  0.354245D+00  0.771994D-01
      3 -0.281684D-01  0.651143D-01  0.891087D+00
      4 -0.446592D+00 -0.205115D+00 -0.447583D-02  0.457698D+00
      5 -0.205115D+00 -0.623538D-01 -0.900032D-02  0.203767D+00  0.760731D-01
      6 -0.446486D-02 -0.899556D-02 -0.618335D-01  0.562030D-02  0.732877D-02
      7 -0.164918D+00 -0.667703D-01  0.203640D+00 -0.636211D-02  0.236178D-02
      8 -0.667726D-01  0.236399D-02  0.534471D-01 -0.204266D-03 -0.639890D-02
      9  0.203605D+00  0.534328D-01 -0.408067D+00 -0.741501D-02 -0.209229D-02
     10 -0.131961D+00 -0.823596D-01 -0.170996D+00 -0.474371D-02 -0.101393D-02
     11 -0.823573D-01 -0.172096D-01 -0.109561D+00  0.155217D-02 -0.732042D-02
     12 -0.170972D+00 -0.109552D+00 -0.421186D+00  0.627055D-02  0.376384D-02
                6             7             8             9            10 
      6  0.490196D-01
      7  0.248565D-01  0.162044D+00
      8  0.118594D-01  0.585268D-01  0.819519D-02
      9  0.675033D-02 -0.212826D+00 -0.582244D-01  0.412437D+00
     10 -0.260119D-01  0.923699D-02  0.845009D-02  0.166356D-01  0.127467D+00
     11 -0.101926D-01  0.588171D-02 -0.416027D-02  0.688386D-02  0.749234D-01
     12  0.606362D-02 -0.156708D-01 -0.708217D-02 -0.111209D-01  0.180372D+00
               11            12 
     11  0.286903D-01
     12  0.112870D+00  0.426244D+00
 FormGI is forming the generalized inverse of G from B-inverse, IUseBI=4.
 Force constants in internal coordinates: 
                1             2             3             4             5 
      1  0.546177D+00
      2 -0.383344D-02  0.545963D+00
      3 -0.381076D-02 -0.383206D-02  0.545844D+00
      4  0.521198D-02  0.513338D-02 -0.103685D-01  0.641273D-01
      5  0.516080D-02 -0.103747D-01  0.522457D-02 -0.320612D-01  0.641416D-01
      6 -0.103728D-01  0.524133D-02  0.514388D-02 -0.320660D-01 -0.320804D-01
      7  0.000000D+00  0.000000D+00  0.000000D+00  0.000000D+00  0.000000D+00
                6             7 
      6  0.641464D-01
      7  0.000000D+00 -0.189752D-01
 Leave Link  716 at Sun May 29 19:30:18 2022, MaxMem=   262144000 cpu:               0.1 elap:               0.0
 (Enter /binaries/g16/l103.exe)

 GradGradGradGradGradGradGradGradGradGradGradGradGradGradGradGradGradGrad
 Berny optimization.
 Red2BG is reusing G-inverse.
 Internal  Forces:  Max     0.010273393 RMS     0.006723513
 Search for a saddle point.
 Step number   1 out of a maximum of   20
 All quantities printed in internal units (Hartrees-Bohrs-Radians)
 Swapping is turned off.
 Second derivative matrix not updated -- analytic derivatives used.
 The second derivative matrix:
                          R1        R2        R3        A1        A2
           R1           0.54618
           R2          -0.00383   0.54596
           R3          -0.00381  -0.00383   0.54584
           A1           0.00521   0.00513  -0.01037   0.06413
           A2           0.00516  -0.01037   0.00522  -0.03206   0.06414
           A3          -0.01037   0.00524   0.00514  -0.03207  -0.03208
           D1          -0.00000  -0.00000  -0.00000  -0.00000   0.00000
                          A3        D1
           A3           0.06415
           D1           0.00000  -0.01898
 ITU=  0
     Eigenvalues ---   -0.01898   0.09566   0.09569   0.53834   0.55026
     Eigenvalues ---    0.55045
 Eigenvectors required to have negative eigenvalues:
                          D1        A2        A3        A1        R3
   1                    1.00000  -0.00001  -0.00001  -0.00000   0.00000
                          R1        R2
   1                    0.00000   0.00000
 RFO step:  Lambda0=5.445827816D-12 Lambda=-5.87162755D-04.
 Linear search not attempted -- option 19 set.
 Iteration  1 RMS(Cart)=  0.01247575 RMS(Int)=  0.00000058
 Iteration  2 RMS(Cart)=  0.00000050 RMS(Int)=  0.00000000
 ITry= 1 IFail=0 DXMaxC= 1.74D-02 DCOld= 1.00D+10 DXMaxT= 3.00D-01 DXLimC= 3.00D+00 Rises=F
 Variable       Old X    -DE/DX   Delta X   Delta X   Delta X     New X
                                 (Linear)    (Quad)   (Total)
    R1        1.87599   0.01027   0.00000   0.01906   0.01906   1.89504
    R2        1.87601   0.01027   0.00000   0.01906   0.01906   1.89506
    R3        1.87600   0.01027   0.00000   0.01906   0.01906   1.89506
    A1        2.09441   0.00000   0.00000   0.00002   0.00002   2.09443
    A2        2.09453  -0.00001   0.00000  -0.00012  -0.00012   2.09441
    A3        2.09425   0.00001   0.00000   0.00010   0.00010   2.09435
    D1       -3.14158   0.00000   0.00000  -0.00002  -0.00002   3.14159
         Item               Value     Threshold  Converged?
 Maximum Force            0.010273     0.000450     NO 
 RMS     Force            0.006724     0.000300     NO 
 Maximum Displacement     0.017449     0.001800     NO 
 RMS     Displacement     0.012476     0.001200     NO 
 Predicted change in Energy=-2.939016D-04
 Lowest energy point so far.  Saving SCF results.
 GradGradGradGradGradGradGradGradGradGradGradGradGradGradGradGradGradGrad

 Leave Link  103 at Sun May 29 19:30:18 2022, MaxMem=   262144000 cpu:               0.0 elap:               0.0
 (Enter /binaries/g16/l202.exe)
                          Input orientation:                          
 ---------------------------------------------------------------------
 Center     Atomic      Atomic             Coordinates (Angstroms)
 Number     Number       Type             X           Y           Z
 ---------------------------------------------------------------------
      1          7           0        1.087619   -0.339950   -0.009709
      2          1           0        2.007502    0.059030    0.006649
      3          1           0        0.589532   -0.487080    0.848148
      4          1           0        0.665777   -0.591820   -0.883928
 ---------------------------------------------------------------------
                    Distance matrix (angstroms):
                    1          2          3          4
     1  N    0.000000
     2  H    1.002814   0.000000
     3  H    1.002825   1.736950   0.000000
     4  H    1.002820   1.736940   1.736915   0.000000
 Stoichiometry    H3N
 Framework group  C1[X(H3N)]
 Deg. of freedom     6
 Full point group                 C1      NOp   1
 RotChk:  IX=2 Diff= 5.12D-01
 Largest Abelian subgroup         C1      NOp   1
 Largest concise Abelian subgroup C1      NOp   1
                         Standard orientation:                         
 ---------------------------------------------------------------------
 Center     Atomic      Atomic             Coordinates (Angstroms)
 Number     Number       Type             X           Y           Z
 ---------------------------------------------------------------------
      1          7           0        0.000005   -0.000001    0.000000
      2          1           0        0.992993   -0.140044   -0.000000
      3          1           0       -0.617800   -0.789921   -0.000000
      4          1           0       -0.375228    0.929971   -0.000000
 ---------------------------------------------------------------------
 Rotational constants (GHZ):         332.4340785         332.4179271         166.2130013
 Leave Link  202 at Sun May 29 19:30:18 2022, MaxMem=   262144000 cpu:               0.0 elap:               0.0
 (Enter /binaries/g16/l301.exe)
 Standard basis: def2SVP (5D, 7F)
 Ernie: Thresh=  0.10000D-02 Tol=  0.10000D-05 Strict=F.
 There are    30 symmetry adapted cartesian basis functions of A   symmetry.
 There are    29 symmetry adapted basis functions of A   symmetry.
    29 basis functions,    46 primitive gaussians,    30 cartesian basis functions
     5 alpha electrons        5 beta electrons
       nuclear repulsion energy        11.9954583165 Hartrees.
 IExCor= 4336 DFT=T Ex+Corr=M062X ExCW=0 ScaHFX=  0.540000
 ScaDFX=  1.000000  1.000000  1.000000  1.000000 ScalE2=  1.000000  1.000000
 IRadAn=      5 IRanWt=     -1 IRanGd=            0 ICorTp=0 IEmpDi=  4
 NAtoms=    4 NActive=    4 NUniq=    4 SFac= 1.00D+00 NAtFMM=   60 NAOKFM=F Big=F
 Integral buffers will be    131072 words long.
 Raffenetti 2 integral format.
 Two-electron integral symmetry is turned on.
 Leave Link  301 at Sun May 29 19:30:18 2022, MaxMem=   262144000 cpu:               0.1 elap:               0.0
 (Enter /binaries/g16/l302.exe)
 NPDir=0 NMtPBC=     1 NCelOv=     1 NCel=       1 NClECP=     1 NCelD=      1
         NCelK=      1 NCelE2=     1 NClLst=     1 CellRange=     0.0.
 One-electron integrals computed using PRISM.
 One-electron integral symmetry used in STVInt
   1 Symmetry operations used in ECPInt.
 ECPInt:  NShTT=     120 NPrTT=     400 LenC2=     121 LenP2D=     397.
 LDataN:  DoStor=T MaxTD1= 4 Len=   56
 NBasis=    29 RedAO= T EigKep=  3.50D-02  NBF=    29
 NBsUse=    29 1.00D-06 EigRej= -1.00D+00 NBFU=    29
 Precomputing XC quadrature grid using
 IXCGrd= 4 IRadAn=           5 IRanWt=          -1 IRanGd=           0 AccXCQ= 0.00D+00.
 Generated NRdTot=       0 NPtTot=           0 NUsed=           0 NTot=          32
 NSgBfM=    30    30    30    30    30 MxSgAt=     4 MxSgA2=     4.
 Leave Link  302 at Sun May 29 19:30:18 2022, MaxMem=   262144000 cpu:               0.3 elap:               0.1
 (Enter /binaries/g16/l303.exe)
 DipDrv:  MaxL=1.
 Leave Link  303 at Sun May 29 19:30:18 2022, MaxMem=   262144000 cpu:               0.1 elap:               0.0
 (Enter /binaries/g16/l401.exe)
 Initial guess from the checkpoint file:  "in.chk"
 B after Tr=     0.000000    0.000000    0.000000
         Rot=    0.983467    0.000000   -0.000000    0.181086 Ang=  20.87 deg.
 Guess basis will be translated and rotated to current coordinates.
 JPrj=2 DoOrth=T DoCkMO=T.
 Leave Link  401 at Sun May 29 19:30:18 2022, MaxMem=   262144000 cpu:               0.2 elap:               0.0
 (Enter /binaries/g16/l502.exe)
 Keep R1 ints in memory in canonical form, NReq=3553076.
 FoFCou: FMM=F IPFlag=           0 FMFlag=           0 FMFlg1=           0
         NFxFlg=           0 DoJE=F BraDBF=F KetDBF=F FulRan=T
         wScrn=  0.000000 ICntrl=       600 IOpCl=  0 I1Cent=           0 NGrid=           0
         NMat0=    1 NMatS0=    435 NMatT0=    0 NMatD0=    1 NMtDS0=    0 NMtDT0=    0
 Symmetry not used in FoFCou.
 Two-electron integral symmetry not used.
 Closed shell SCF:
 Using DIIS extrapolation, IDIIS=  1040.
 NGot=   262144000 LenX=   262046592 LenY=   262045251
 Requested convergence on RMS density matrix=1.00D-08 within 128 cycles.
 Requested convergence on MAX density matrix=1.00D-06.
 Requested convergence on             energy=1.00D-06.
 No special actions if energy rises.

 Cycle   1  Pass 1  IDiag  1:
 E= -56.4638983111556    
 DIIS: error= 1.58D-03 at cycle   1 NSaved=   1.
 NSaved= 1 IEnMin= 1 EnMin= -56.4638983111556     IErMin= 1 ErrMin= 1.58D-03
 ErrMax= 1.58D-03  0.00D+00 EMaxC= 1.00D-01 BMatC= 6.83D-05 BMatP= 6.83D-05
 IDIUse=3 WtCom= 9.84D-01 WtEn= 1.58D-02
 Coeff-Com:  0.100D+01
 Coeff-En:   0.100D+01
 Coeff:      0.100D+01
 Gap=     0.664 Goal=   None    Shift=    0.000
 GapD=    0.664 DampG=2.000 DampE=1.000 DampFc=2.0000 IDamp=-1.
 RMSDP=3.50D-04 MaxDP=2.70D-03              OVMax= 3.07D-03

 Cycle   2  Pass 1  IDiag  1:
 E= -56.4639551903129     Delta-E=       -0.000056879157 Rises=F Damp=F
 DIIS: error= 6.34D-04 at cycle   2 NSaved=   2.
 NSaved= 2 IEnMin= 2 EnMin= -56.4639551903129     IErMin= 2 ErrMin= 6.34D-04
 ErrMax= 6.34D-04  0.00D+00 EMaxC= 1.00D-01 BMatC= 1.14D-05 BMatP= 6.83D-05
 IDIUse=3 WtCom= 9.94D-01 WtEn= 6.34D-03
 Coeff-Com:  0.194D+00 0.806D+00
 Coeff-En:   0.000D+00 0.100D+01
 Coeff:      0.193D+00 0.807D+00
 Gap=     0.392 Goal=   None    Shift=    0.000
 RMSDP=1.21D-04 MaxDP=1.62D-03 DE=-5.69D-05 OVMax= 1.37D-03

 Cycle   3  Pass 1  IDiag  1:
 E= -56.4639617004330     Delta-E=       -0.000006510120 Rises=F Damp=F
 DIIS: error= 3.86D-04 at cycle   3 NSaved=   3.
 NSaved= 3 IEnMin= 3 EnMin= -56.4639617004330     IErMin= 3 ErrMin= 3.86D-04
 ErrMax= 3.86D-04  0.00D+00 EMaxC= 1.00D-01 BMatC= 3.92D-06 BMatP= 1.14D-05
 IDIUse=3 WtCom= 9.96D-01 WtEn= 3.86D-03
 Coeff-Com: -0.256D-01 0.364D+00 0.661D+00
 Coeff-En:   0.000D+00 0.213D+00 0.787D+00
 Coeff:     -0.255D-01 0.364D+00 0.662D+00
 Gap=     0.391 Goal=   None    Shift=    0.000
 RMSDP=4.25D-05 MaxDP=4.56D-04 DE=-6.51D-06 OVMax= 5.34D-04

 Cycle   4  Pass 1  IDiag  1:
 E= -56.4639649633259     Delta-E=       -0.000003262893 Rises=F Damp=F
 DIIS: error= 1.42D-05 at cycle   4 NSaved=   4.
 NSaved= 4 IEnMin= 4 EnMin= -56.4639649633259     IErMin= 4 ErrMin= 1.42D-05
 ErrMax= 1.42D-05  0.00D+00 EMaxC= 1.00D-01 BMatC= 2.50D-09 BMatP= 3.92D-06
 IDIUse=1 WtCom= 1.00D+00 WtEn= 0.00D+00
 Coeff-Com:  0.181D-02-0.611D-01-0.103D+00 0.116D+01
 Coeff:      0.181D-02-0.611D-01-0.103D+00 0.116D+01
 Gap=     0.391 Goal=   None    Shift=    0.000
 RMSDP=2.67D-06 MaxDP=3.99D-05 DE=-3.26D-06 OVMax= 3.27D-05

 Cycle   5  Pass 1  IDiag  1:
 E= -56.4639649685820     Delta-E=       -0.000000005256 Rises=F Damp=F
 DIIS: error= 1.59D-06 at cycle   5 NSaved=   5.
 NSaved= 5 IEnMin= 5 EnMin= -56.4639649685820     IErMin= 5 ErrMin= 1.59D-06
 ErrMax= 1.59D-06  0.00D+00 EMaxC= 1.00D-01 BMatC= 2.16D-11 BMatP= 2.50D-09
 IDIUse=1 WtCom= 1.00D+00 WtEn= 0.00D+00
 Coeff-Com: -0.175D-03 0.849D-02 0.154D-01-0.214D+00 0.119D+01
 Coeff:     -0.175D-03 0.849D-02 0.154D-01-0.214D+00 0.119D+01
 Gap=     0.391 Goal=   None    Shift=    0.000
 RMSDP=2.85D-07 MaxDP=4.72D-06 DE=-5.26D-09 OVMax= 3.95D-06

 Cycle   6  Pass 1  IDiag  1:
 E= -56.4639649686240     Delta-E=       -0.000000000042 Rises=F Damp=F
 DIIS: error= 5.30D-08 at cycle   6 NSaved=   6.
 NSaved= 6 IEnMin= 6 EnMin= -56.4639649686240     IErMin= 6 ErrMin= 5.30D-08
 ErrMax= 5.30D-08  0.00D+00 EMaxC= 1.00D-01 BMatC= 7.11D-14 BMatP= 2.16D-11
 IDIUse=1 WtCom= 1.00D+00 WtEn= 0.00D+00
 Coeff-Com:  0.714D-05-0.498D-03-0.104D-02 0.152D-01-0.104D+00 0.109D+01
 Coeff:      0.714D-05-0.498D-03-0.104D-02 0.152D-01-0.104D+00 0.109D+01
 Gap=     0.391 Goal=   None    Shift=    0.000
 RMSDP=8.78D-09 MaxDP=1.45D-07 DE=-4.20D-11 OVMax= 1.11D-07

 SCF Done:  E(RM062X) =  -56.4639649686     A.U. after    6 cycles
            NFock=  6  Conv=0.88D-08     -V/T= 2.0106
 KE= 5.587278571521D+01 PE=-1.556967209002D+02 EE= 3.136451189981D+01
 Leave Link  502 at Sun May 29 19:30:19 2022, MaxMem=   262144000 cpu:               1.8 elap:               0.4
 (Enter /binaries/g16/l701.exe)
 ... and contract with generalized density number  0.
 Compute integral first derivatives.
   1 Symmetry operations used in ECPInt.
 ECPInt:  NShTT=     120 NPrTT=     400 LenC2=     121 LenP2D=     397.
 LDataN:  DoStor=T MaxTD1= 5 Len=  102
 Leave Link  701 at Sun May 29 19:30:19 2022, MaxMem=   262144000 cpu:               0.2 elap:               0.1
 (Enter /binaries/g16/l702.exe)
 L702 exits ... SP integral derivatives will be done elsewhere.
 Leave Link  702 at Sun May 29 19:30:19 2022, MaxMem=   262144000 cpu:               0.1 elap:               0.0
 (Enter /binaries/g16/l703.exe)
 Integral derivatives from FoFJK, PRISM(SPDF).
 Compute integral first derivatives, UseDBF=F ICtDFT=           0.
 Calling FoFJK, ICntrl=      2127 FMM=F ISym2X=0 I1Cent= 0 IOpClX= 0 NMat=1 NMatS=1 NMatT=0.
 FoFJK:  IHMeth= 1 ICntrl=    2127 DoSepK=F KAlg= 0 I1Cent=           0 FoldK=F
 IRaf=         0 NMat=       1 IRICut=       1 DoRegI=T DoRafI=F ISym2E= 0 IDoP0=0 IntGTp=1.
 FoFCou: FMM=F IPFlag=           0 FMFlag=      100000 FMFlg1=         800
         NFxFlg=           0 DoJE=F BraDBF=F KetDBF=F FulRan=T
         wScrn=  0.000000 ICntrl=      2127 IOpCl=  0 I1Cent=           0 NGrid=           0
         NMat0=    1 NMatS0=      1 NMatT0=    0 NMatD0=    1 NMtDS0=    0 NMtDT0=    0
 Symmetry not used in FoFCou.
 Leave Link  703 at Sun May 29 19:30:19 2022, MaxMem=   262144000 cpu:               0.6 elap:               0.2
 (Enter /binaries/g16/l716.exe)
 Dipole        =-1.76560754D-05 1.54995836D-06-5.29513136D-07
 ***** Axes restored to original set *****
 -------------------------------------------------------------------
 Center     Atomic                   Forces (Hartrees/Bohr)
 Number     Number              X              Y              Z
 -------------------------------------------------------------------
      1        7          -0.000014320   -0.000006178   -0.000000286
      2        1           0.000306042    0.000132970    0.000008494
      3        1          -0.000160662   -0.000046817    0.000284922
      4        1          -0.000131060   -0.000079975   -0.000293130
 -------------------------------------------------------------------
 Cartesian Forces:  Max     0.000306042 RMS     0.000165917
 Leave Link  716 at Sun May 29 19:30:19 2022, MaxMem=   262144000 cpu:               0.1 elap:               0.0
 (Enter /binaries/g16/l103.exe)

 GradGradGradGradGradGradGradGradGradGradGradGradGradGradGradGradGradGrad
 Berny optimization.
 FormGI is forming the generalized inverse of G from B-inverse, IUseBI=4.
 Internal  Forces:  Max     0.000333775 RMS     0.000217155
 Search for a saddle point.
 Step number   2 out of a maximum of   20
 All quantities printed in internal units (Hartrees-Bohrs-Radians)
 Swapping is turned off.
 Update second derivatives using D2CorX and points    1    2
 The second derivative matrix:
                          R1        R2        R3        A1        A2
           R1           0.54050
           R2          -0.00945   0.54040
           R3          -0.00944  -0.00940   0.54027
           A1           0.00530   0.00522  -0.01029   0.06413
           A2           0.00524  -0.01030   0.00530  -0.03206   0.06414
           A3          -0.01053   0.00508   0.00499  -0.03206  -0.03208
           D1           0.00000   0.00000   0.00000  -0.00000   0.00000
                          A3        D1
           A3           0.06414
           D1           0.00000  -0.01898
 ITU=  0  0
     Eigenvalues ---   -0.01898   0.09566   0.09569   0.52153   0.55026
     Eigenvalues ---    0.55045
 Eigenvectors required to have negative eigenvalues:
                          D1        A1        A3        A2        R1
   1                   -1.00000  -0.00000   0.00000   0.00000   0.00000
                          R2        R3
   1                    0.00000  -0.00000
 RFO step:  Lambda0=1.652671056D-14 Lambda=-6.34084269D-07.
 Linear search not attempted -- option 19 set.
 Iteration  1 RMS(Cart)=  0.00041805 RMS(Int)=  0.00000002
 Iteration  2 RMS(Cart)=  0.00000001 RMS(Int)=  0.00000000
 ITry= 1 IFail=0 DXMaxC= 5.98D-04 DCOld= 1.00D+10 DXMaxT= 3.00D-01 DXLimC= 3.00D+00 Rises=F
 Variable       Old X    -DE/DX   Delta X   Delta X   Delta X     New X
                                 (Linear)    (Quad)   (Total)
    R1        1.89504   0.00033   0.00000   0.00064   0.00064   1.89569
    R2        1.89506   0.00033   0.00000   0.00063   0.00063   1.89570
    R3        1.89506   0.00033   0.00000   0.00063   0.00063   1.89569
    A1        2.09443  -0.00000   0.00000  -0.00005  -0.00005   2.09437
    A2        2.09441  -0.00000   0.00000  -0.00005  -0.00005   2.09437
    A3        2.09435   0.00001   0.00000   0.00010   0.00010   2.09444
    D1        3.14159  -0.00000   0.00000   0.00000   0.00000  -3.14159
         Item               Value     Threshold  Converged?
 Maximum Force            0.000334     0.000450     YES
 RMS     Force            0.000217     0.000300     YES
 Maximum Displacement     0.000598     0.001800     YES
 RMS     Displacement     0.000418     0.001200     YES
 Predicted change in Energy=-3.170421D-07
 Optimization completed.
    -- Stationary point found.
                           ----------------------------
                           !   Optimized Parameters   !
                           ! (Angstroms and Degrees)  !
 --------------------------                            --------------------------
 ! Name  Definition              Value          Derivative Info.                !
 --------------------------------------------------------------------------------
 ! R1    R(1,2)                  1.0028         -DE/DX =    0.0003              !
 ! R2    R(1,3)                  1.0028         -DE/DX =    0.0003              !
 ! R3    R(1,4)                  1.0028         -DE/DX =    0.0003              !
 ! A1    A(2,1,3)              120.0018         -DE/DX =    0.0                 !
 ! A2    A(2,1,4)              120.0011         -DE/DX =    0.0                 !
 ! A3    A(3,1,4)              119.9971         -DE/DX =    0.0                 !
 ! D1    D(2,1,4,3)           -180.0            -DE/DX =    0.0                 !
 --------------------------------------------------------------------------------
 Lowest energy point so far.  Saving SCF results.
 Largest change from initial coordinates is atom    4       0.362 Angstoms.
 GradGradGradGradGradGradGradGradGradGradGradGradGradGradGradGradGradGrad

 Leave Link  103 at Sun May 29 19:30:19 2022, MaxMem=   262144000 cpu:               0.0 elap:               0.0
 (Enter /binaries/g16/l202.exe)
                          Input orientation:                          
 ---------------------------------------------------------------------
 Center     Atomic      Atomic             Coordinates (Angstroms)
 Number     Number       Type             X           Y           Z
 ---------------------------------------------------------------------
      1          7           0        1.087619   -0.339950   -0.009709
      2          1           0        2.007502    0.059030    0.006649
      3          1           0        0.589532   -0.487080    0.848148
      4          1           0        0.665777   -0.591820   -0.883928
 ---------------------------------------------------------------------
                    Distance matrix (angstroms):
                    1          2          3          4
     1  N    0.000000
     2  H    1.002814   0.000000
     3  H    1.002825   1.736950   0.000000
     4  H    1.002820   1.736940   1.736915   0.000000
 Stoichiometry    H3N
 Framework group  C1[X(H3N)]
 Deg. of freedom     6
 Full point group                 C1      NOp   1
 RotChk:  IX=2 Diff= 7.19D-13
 Largest Abelian subgroup         C1      NOp   1
 Largest concise Abelian subgroup C1      NOp   1
                         Standard orientation:                         
 ---------------------------------------------------------------------
 Center     Atomic      Atomic             Coordinates (Angstroms)
 Number     Number       Type             X           Y           Z
 ---------------------------------------------------------------------
      1          7           0        0.000005   -0.000001    0.000000
      2          1           0        0.992993   -0.140044   -0.000000
      3          1           0       -0.617800   -0.789921   -0.000000
      4          1           0       -0.375228    0.929971   -0.000000
 ---------------------------------------------------------------------
 Rotational constants (GHZ):         332.4340785         332.4179271         166.2130013
 Leave Link  202 at Sun May 29 19:30:19 2022, MaxMem=   262144000 cpu:               0.0 elap:               0.0
 (Enter /binaries/g16/l601.exe)
 Copying SCF densities to generalized density rwf, IOpCl= 0 IROHF=0.

 **********************************************************************

            Population analysis using the SCF Density.

 **********************************************************************

 Orbital symmetries:
       Occupied  (A) (A) (A) (A) (A)
       Virtual   (A) (A) (A) (A) (A) (A) (A) (A) (A) (A) (A) (A)
                 (A) (A) (A) (A) (A) (A) (A) (A) (A) (A) (A) (A)
 The electronic state is 1-A.
 Alpha  occ. eigenvalues --  -14.70703  -0.90568  -0.53164  -0.53163  -0.28577
 Alpha virt. eigenvalues --    0.10557   0.18876   0.18876   0.62284   0.62287
 Alpha virt. eigenvalues --    0.64592   0.82220   0.89796   0.89796   0.91708
 Alpha virt. eigenvalues --    1.34685   1.34686   1.58783   1.85306   1.85307
 Alpha virt. eigenvalues --    1.88283   2.18284   2.41961   2.41964   2.70420
 Alpha virt. eigenvalues --    2.70423   3.24462   3.31522   3.31526
          Condensed to atoms (all electrons):
               1          2          3          4
     1  N    6.181932   0.402009   0.402006   0.402006
     2  H    0.402009   0.531136  -0.031231  -0.031231
     3  H    0.402006  -0.031231   0.531137  -0.031231
     4  H    0.402006  -0.031231  -0.031231   0.531141
 Mulliken charges:
               1
     1  N   -0.387952
     2  H    0.129317
     3  H    0.129320
     4  H    0.129315
 Sum of Mulliken charges =  -0.00000
 Mulliken charges with hydrogens summed into heavy atoms:
               1
     1  N   -0.000000
 Electronic spatial extent (au):  <R**2>=             25.7179
 Charge=              0.0000 electrons
 Dipole moment (field-independent basis, Debye):
    X=             -0.0000    Y=              0.0000    Z=             -0.0000  Tot=              0.0000
 Quadrupole moment (field-independent basis, Debye-Ang):
   XX=             -5.5569   YY=             -5.5571   ZZ=             -8.9865
   XY=             -0.0000   XZ=             -0.0000   YZ=             -0.0000
 Traceless Quadrupole moment (field-independent basis, Debye-Ang):
   XX=              1.1432   YY=              1.1431   ZZ=             -2.2863
   XY=             -0.0000   XZ=             -0.0000   YZ=             -0.0000
 Octapole moment (field-independent basis, Debye-Ang**2):
  XXX=              0.9715  YYY=              0.4343  ZZZ=             -0.0000  XYY=             -0.9716
  XXY=             -0.4343  XXZ=             -0.0000  XZZ=             -0.0000  YZZ=              0.0000
  YYZ=             -0.0000  XYZ=              0.0000
 Hexadecapole moment (field-independent basis, Debye-Ang**3):
 XXXX=             -8.9744 YYYY=             -8.9745 ZZZZ=             -7.9952 XXXY=              0.0000
 XXXZ=             -0.0000 YYYX=             -0.0000 YYYZ=             -0.0000 ZZZX=             -0.0000
 ZZZY=             -0.0000 XXYY=             -2.9914 XXZZ=             -3.2083 YYZZ=             -3.2083
 XXYZ=              0.0000 YYXZ=              0.0000 ZZXY=             -0.0000
 N-N= 1.199545831652D+01 E-N=-1.556967198585D+02  KE= 5.587278571521D+01
 No NMR shielding tensors so no spin-rotation constants.
 Leave Link  601 at Sun May 29 19:30:19 2022, MaxMem=   262144000 cpu:               0.3 elap:               0.1
 (Enter /binaries/g16/l9999.exe)
 Unable to Open any file for archive entry.
 1\1\GINC-WEB\FTS\RM062X\def2SVP\H3N1\CALCUS\29-May-2022\0\\#p opt(ts, 
 NoEigenTest, CalcFC) M062X/Def2SVP\\File created by ccinput\\0,1\N,1.0
 876191821,-0.3399496921,-0.0097093711\H,2.0075020344,0.0590298282,0.00
 66491925\H,0.589531986,-0.4870798175,0.8481482643\H,0.6657767976,-0.59
 18203086,-0.8839280757\\Version=ES64L-G16RevC.01\State=1-A\HF=-56.4639
 65\RMSD=8.783e-09\RMSF=1.659e-04\Dipole=-0.0000161,-0.0000075,0.000000
 7\Quadrupole=0.4505926,-1.2869409,0.8363482,0.9238194,-0.0734534,0.169
 8741\PG=C01 [X(H3N1)]\\@
 The archive entry for this job was punched.


 NOTHING PUZZLES ME MORE THAN TIME AND SPACE; AND YET NOTHING TROUBLES ME LESS
                                                          -- CHARLES LAMB (1810)
 Job cpu time:       0 days  0 hours  0 minutes 13.7 seconds.
 Elapsed time:       0 days  0 hours  0 minutes  3.5 seconds.
 File lengths (MBytes):  RWF=      6 Int=      0 D2E=      0 Chk=      1 Scr=      1
 Normal termination of Gaussian 16 at Sun May 29 19:30:19 2022.
