5
 energy: -4.175218216500 gnorm: 0.000066472688 xtb: 6.5.1 (579679a)
C            4.29203295990451        3.65871075600996       -0.00150663561780
H            4.65236658739165        2.63813948364449       -0.00116405197397
H            4.65323099150352        4.17082488153979        0.88058099865274
H            4.65168166141956        4.16756601950980       -0.88636152727569
H            3.20978779978075        3.65875885929596       -0.00054878378528
