5
 energy: -4.174846019213 gnorm: 0.017368041996 xtb: 6.5.1 (579679a)
C            4.29180000000000        3.65880000000000        0.00000000000000
H            4.64850000000000        2.65000000000000        0.00000000000000
H            4.64850000000000        4.16320000000000        0.87070000000000
H            4.64850000000000        4.16320000000000       -0.87970000000000
H            3.22180000000000        3.65880000000000        0.00000000000000
5
 energy: -4.175208596724 gnorm: 0.002835191125 xtb: 6.5.1 (579679a)
C            4.29181415746717        3.65867398312700       -0.00084913545458
H            4.65194108035923        2.64018623394938       -0.00102226352014
H            4.65271735124489        4.16951504813682        0.87897647048524
H            4.65103840403951        4.16674853858610       -0.88530873936029
H            3.21158900688919        3.65887619620070       -0.00079633215022
5
 energy: -4.175218155994 gnorm: 0.000292905539 xtb: 6.5.1 (579679a)
C            4.29194639552216        3.65868802594306       -0.00130266663731
H            4.65241240873921        2.63831032966755       -0.00116480185836
H            4.65329995875756        4.17071225360002        0.88048708862867
H            4.65158926326421        4.16748416509760       -0.88632077804487
H            3.20985197371686        3.65880522569177       -0.00069884208814
5
 energy: -4.175218216500 gnorm: 0.000066604206 xtb: 6.5.1 (579679a)
C            4.29203295990451        3.65871075600996       -0.00150663561780
H            4.65236658739165        2.63813948364449       -0.00116405197397
H            4.65323099150352        4.17082488153979        0.88058099865274
H            4.65168166141956        4.16756601950980       -0.88636152727569
H            3.20978779978075        3.65875885929596       -0.00054878378528
