5
 energy: -4.174846013020 gnorm: 0.017368182937 xtb: 6.4.1 (afa7bdf)
C         4.29180000000000    3.65880000000000    0.00000000000000
H         4.64850000000000    2.65000000000000    0.00000000000000
H         4.64850000000000    4.16320000000000    0.87070000000000
H         4.64850000000000    4.16320000000000   -0.87970000000000
H         3.22180000000000    3.65880000000000    0.00000000000000
5
 energy: -4.175179920159 gnorm: 0.003675879327 xtb: 6.4.1 (afa7bdf)
C         4.29208471199070    3.65920084679338   -0.00180097401485
H         4.65235682586697    2.64083042752543   -0.00170780239813
H         4.65316798376885    4.16980263714164    0.87813815555143
H         4.64962005943103    4.16478552157145   -0.88192145893450
H         3.21187041894245    3.65938056696810   -0.00170792020395
5
 energy: -4.175191496307 gnorm: 0.000546158975 xtb: 6.4.1 (afa7bdf)
C         4.29241137311011    3.65964048199204   -0.00305378507475
H         4.65273572804778    2.63913036167616   -0.00142067412306
H         4.65369369255586    4.17056508212182    0.87976850783553
H         4.65009704403005    4.16548000258027   -0.88287262623708
H         3.21016216225619    3.65918407162971   -0.00142142240064
5
 energy: -4.175191666761 gnorm: 0.000169195655 xtb: 6.4.1 (afa7bdf)
C         4.29252768771240    3.65980060222868   -0.00355361923948
H         4.65262687750855    2.63903501276393   -0.00110556800938
H         4.65356186141925    4.17038033968926    0.87997997280368
H         4.65027635684256    4.16573376009742   -0.88321534948513
H         3.21010721651724    3.65905028522072   -0.00110543606968
