5
 energy: -4.174846013020 gnorm: 0.017368182937 xtb: 6.4.1 (afa7bdf)
C         4.29180000000000    3.65880000000000    0.00000000000000
H         4.64850000000000    2.65000000000000    0.00000000000000
H         4.64850000000000    4.16320000000000    0.87070000000000
H         4.64850000000000    4.16320000000000   -0.87970000000000
H         3.22180000000000    3.65880000000000    0.00000000000000
5
 energy: -4.175208701302 gnorm: 0.002848199172 xtb: 6.4.1 (afa7bdf)
C         4.29168380623147    3.65869862284758   -0.00092495457655
H         4.65203244374094    2.64034786113900   -0.00088332899105
H         4.65284214737185    4.16933246422444    0.87897326721295
H         4.65108342005022    4.16674645007283   -0.88533920261147
H         3.21145818260551    3.65887460171615   -0.00082578103388
5
 energy: -4.175218305067 gnorm: 0.000305677780 xtb: 6.4.1 (afa7bdf)
C         4.29159603981773    3.65871193724064   -0.00142964651686
H         4.65264310825231    2.63864891174593   -0.00094413820822
H         4.65359012909997    4.17039036703148    0.88042693122402
H         4.65174682504683    4.16744470469440   -0.88630611593815
H         3.20952389778316    3.65880407928755   -0.00074703056079
5
 energy: -4.175218372002 gnorm: 0.000068653679 xtb: 6.4.1 (afa7bdf)
C         4.29153210815540    3.65872443337936   -0.00166760380182
H         4.65268308279810    2.63856926825568   -0.00089371549548
H         4.65361762760670    4.17042903678092    0.88049057423476
H         4.65190158114939    4.16751247596427   -0.88632035808182
H         3.20936560029042    3.65876478561978   -0.00060889685563
