      -----------------------------------------------------------      
     |                   =====================                   |     
     |                           x T B                           |     
     |                   =====================                   |     
     |                         S. Grimme                         |     
     |          Mulliken Center for Theoretical Chemistry        |     
     |                    University of Bonn                     |     
      -----------------------------------------------------------      

   * xtb version 6.4.1 (afa7bdf) compiled by 'ehlert@majestix' on 2021-06-10

   xtb is free software: you can redistribute it and/or modify it under
   the terms of the GNU Lesser General Public License as published by
   the Free Software Foundation, either version 3 of the License, or
   (at your option) any later version.
   
   xtb is distributed in the hope that it will be useful,
   but WITHOUT ANY WARRANTY; without even the implied warranty of
   MERCHANTABILITY or FITNESS FOR A PARTICULAR PURPOSE.  See the
   GNU Lesser General Public License for more details.
   
   Cite this work as:
   * C. Bannwarth, E. Caldeweyher, S. Ehlert, A. Hansen, P. Pracht,
     J. Seibert, S. Spicher, S. Grimme, WIREs Comput. Mol. Sci., 2020, 11,
     e01493. DOI: 10.1002/wcms.1493
   
   for GFN2-xTB:
   * C. Bannwarth, S. Ehlert and S. Grimme., J. Chem. Theory Comput., 2019,
     15, 1652-1671. DOI: 10.1021/acs.jctc.8b01176
   for GFN1-xTB:
   * S. Grimme, C. Bannwarth, P. Shushkov, J. Chem. Theory Comput., 2017,
     13, 1989-2009. DOI: 10.1021/acs.jctc.7b00118
   for GFN0-xTB:
   * P. Pracht, E. Caldeweyher, S. Ehlert, S. Grimme, ChemRxiv, 2019, preprint.
     DOI: 10.26434/chemrxiv.8326202.v1
   for GFN-FF:
   * S. Spicher and S. Grimme, Angew. Chem. Int. Ed., 2020, 59, 15665-15673.
     DOI: 10.1002/anie.202004239
   
   for DFT-D4:
   * E. Caldeweyher, C. Bannwarth and S. Grimme, J. Chem. Phys., 2017,
     147, 034112. DOI: 10.1063/1.4993215
   * E. Caldeweyher, S. Ehlert, A. Hansen, H. Neugebauer, S. Spicher,
     C. Bannwarth and S. Grimme, J. Chem. Phys., 2019, 150, 154122.
     DOI: 10.1063/1.5090222
   * E. Caldeweyher, J.-M. Mewes, S. Ehlert and S. Grimme, Phys. Chem. Chem. Phys.
     2020, 22, 8499-8512. DOI: 10.1039/D0CP00502A
   
   for sTDA-xTB:
   * S. Grimme and C. Bannwarth, J. Chem. Phys., 2016, 145, 054103.
     DOI: 10.1063/1.4959605
   
   in the mass-spec context:
   * V. Asgeirsson, C. Bauer and S. Grimme, Chem. Sci., 2017, 8, 4879.
     DOI: 10.1039/c7sc00601b
   * J. Koopman and S. Grimme, ACS Omega 2019, 4, 12, 15120-15133.
     DOI: 10.1021/acsomega.9b02011
   
   for metadynamics refer to:
   * S. Grimme, J. Chem. Theory Comput., 2019, 155, 2847-2862
     DOI: 10.1021/acs.jctc.9b00143
   
   for SPH calculations refer to:
   * S. Spicher and S. Grimme, J. Chem. Theory Comput., 2021, 17, 1701-1714
     DOI: 10.1021/acs.jctc.0c01306
   
   with help from (in alphabetical order)
   P. Atkinson, C. Bannwarth, F. Bohle, G. Brandenburg, E. Caldeweyher
   M. Checinski, S. Dohm, S. Ehlert, S. Ehrlich, I. Gerasimov, J. Koopman
   C. Lavigne, S. Lehtola, F. März, M. Müller, F. Musil, H. Neugebauer
   J. Pisarek, C. Plett, P. Pracht, J. Seibert, P. Shushkov, S. Spicher
   M. Stahn, M. Steiner, T. Strunk, J. Stückrath, T. Rose, and J. Unsleber
   
 * started run on 2022/08/14 at 12:07:02.965     

           -------------------------------------------------
          |                Calculation Setup                |
           -------------------------------------------------

          program call               : xtb in.xyz --opt tight --input input --chrg -1
          hostname                   : web
          coordinate file            : in.xyz
          omp threads                :                    16
          number of atoms            :                    10
          number of electrons        :                    28
          charge                     :                    -1
          spin                       :                   0.0
          first test random number   :      0.72026610431383

   ID    Z sym.   atoms
    1    6 C      1, 2
    2   17 Cl     3
    3    1 H      4-8, 10
    4    8 O      9
constraining bond 1 4 to    1.1136018 Å, actual value:    1.1136018 Å

molecular fragmentation (1/2 indicates fragments):
1111111122
# atoms in fragment 1/2:     8     2
 fragment masses (1/2) :       64.51       17.01
CMA distance (Bohr)    :   8.089
constraining FC (au)   :  1.0000

           -------------------------------------------------
          |                 G F N 2 - x T B                 |
           -------------------------------------------------

        Reference                      10.1021/acs.jctc.8b01176
      * Hamiltonian:
        H0-scaling (s, p, d)           1.850000    2.230000    2.230000
        zeta-weighting                 0.500000
      * Dispersion:
        s8                             2.700000
        a1                             0.520000
        a2                             5.000000
        s9                             5.000000
      * Repulsion:
        kExp                           1.500000    1.000000
        rExp                           1.000000
      * Coulomb:
        alpha                          2.000000
        third order                    shell-resolved
        anisotropic                    true
        a3                             3.000000
        a5                             4.000000
        cn-shift                       1.200000
        cn-exp                         4.000000
        max-rad                        5.000000


          ...................................................
          :                      SETUP                      :
          :.................................................:
          :  # basis functions                  28          :
          :  # atomic orbitals                  27          :
          :  # shells                           15          :
          :  # electrons                        28          :
          :  max. iterations                   250          :
          :  Hamiltonian                  GFN2-xTB          :
          :  restarted?                      false          :
          :  GBSA solvation                  false          :
          :  PC potential                    false          :
          :  electronic temp.          300.0000000     K    :
          :  accuracy                    1.0000000          :
          :  -> integral cutoff          0.2500000E+02      :
          :  -> integral neglect         0.1000000E-07      :
          :  -> SCF convergence          0.1000000E-05 Eh   :
          :  -> wf. convergence          0.1000000E-03 e    :
          :  Broyden damping             0.4000000          :
          ...................................................

 iter      E             dE          RMSdq      gap      omega  full diag
   1    -16.0812883 -0.160813E+02  0.548E+00    8.06       0.0  T
   2    -16.1852041 -0.103916E+00  0.334E+00    4.91       1.0  T
   3    -16.1900370 -0.483289E-02  0.182E+00    3.40       1.0  T
   4    -16.1928143 -0.277726E-02  0.728E-01    2.11       1.0  T
   5    -16.1938824 -0.106808E-02  0.514E-01    2.21       1.0  T
   6    -16.1947055 -0.823106E-03  0.329E-01    2.27       1.0  T
   7    -16.1952192 -0.513739E-03  0.611E-02    2.11       1.0  T
   8    -16.1952223 -0.306320E-05  0.239E-02    2.13       1.3  T
   9    -16.1952232 -0.915570E-06  0.550E-03    2.10       5.7  T
  10    -16.1952232 -0.357257E-07  0.244E-03    2.10      12.9  T
  11    -16.1952232 -0.124504E-07  0.148E-03    2.10      21.3  T
  12    -16.1952233 -0.733594E-08  0.470E-04    2.10      67.3  T
  13    -16.1952233 -0.309999E-09  0.145E-04    2.10     218.3  T

   *** convergence criteria satisfied after 13 iterations ***

         #    Occupation            Energy/Eh            Energy/eV
      -------------------------------------------------------------
         1        2.0000           -0.9561825             -26.0190
       ...           ...                  ...                  ...
         8        2.0000           -0.3171116              -8.6290
         9        2.0000           -0.2999021              -8.1608
        10        2.0000           -0.2873279              -7.8186
        11        2.0000           -0.2815140              -7.6604
        12        2.0000           -0.1796664              -4.8890
        13        2.0000           -0.0619557              -1.6859
        14        2.0000           -0.0588543              -1.6015 (HOMO)
        15                          0.0183745               0.5000 (LUMO)
        16                          0.1222055               3.3254
        17                          0.1266735               3.4470
        18                          0.1345918               3.6624
        19                          0.1349666               3.6726
       ...                                ...                  ...
        27                          0.7431149              20.2212
      -------------------------------------------------------------
                  HL-Gap            0.0772289 Eh            2.1015 eV
             Fermi-level           -0.0202399 Eh           -0.5508 eV

 SCC (total)                   0 d,  0 h,  0 min,  0.003 sec
 SCC setup                      ...        0 min,  0.000 sec (  3.267%)
 Dispersion                     ...        0 min,  0.000 sec (  1.281%)
 classical contributions        ...        0 min,  0.000 sec (  0.517%)
 integral evaluation            ...        0 min,  0.000 sec (  9.466%)
 iterations                     ...        0 min,  0.002 sec ( 70.154%)
 molecular gradient             ...        0 min,  0.000 sec ( 12.696%)
 printout                       ...        0 min,  0.000 sec (  2.139%)

         :::::::::::::::::::::::::::::::::::::::::::::::::::::
         ::                     SUMMARY                     ::
         :::::::::::::::::::::::::::::::::::::::::::::::::::::
         :: total energy             -16.050315592872 Eh    ::
         :: gradient norm              0.249310902703 Eh/a0 ::
         :: HOMO-LUMO gap              2.101504259788 eV    ::
         ::.................................................::
         :: SCC energy               -16.195223251413 Eh    ::
         :: -> isotropic ES            0.253043591410 Eh    ::
         :: -> anisotropic ES         -0.012526490573 Eh    ::
         :: -> anisotropic XC         -0.033247460064 Eh    ::
         :: -> dispersion             -0.004752965341 Eh    ::
         :: repulsion energy           0.144907989769 Eh    ::
         :: add. restraining           0.000000000000 Eh    ::
         :: total charge              -1.000000000000 e     ::
         :::::::::::::::::::::::::::::::::::::::::::::::::::::

      ----------------------------------------------------------- 
     |                   =====================                   |
     |                        A N C O P T                        |
     |                   =====================                   |
     |               Approximate Normal Coordinate               |
     |                Rational Function Optimizer                |
      ----------------------------------------------------------- 

          ...................................................
          :                      SETUP                      :
          :.................................................:
          :   optimization level             tight          :
          :   max. optcycles                   200          :
          :   ANC micro-cycles                  20          :
          :   degrees of freedom                24          :
          :.................................................:
          :   RF solver                   davidson          :
          :   write xtbopt.log                true          :
          :   linear?                        false          :
          :   energy convergence         0.1000000E-05 Eh   :
          :   grad. convergence          0.8000000E-03 Eh/α :
          :   maximium RF displ.         1.0000000          :
          :   Hlow (freq-cutoff)         0.1000000E-01      :
          :   Hmax (freq-cutoff)         5.0000000          :
          :   S6 in model hess.         20.0000000          :
          ...................................................

generating ANC from model Hessian ...
Using Lindh-Hessian (1995)
 Shifting diagonal of input Hessian by   1.000778560271032E-002
 Lowest  eigenvalues of input Hessian
    0.010000    0.000000    0.000000    0.000000    0.000000    0.000000
    0.000000    0.010652    0.011081    0.014798    0.030958    0.037473
    0.053087    0.058663    0.076181    0.096768    0.105013    0.142860
 Highest eigenvalues
    1.104857    1.222908    1.230625    1.308589    2.422397    5.008195
 

........................................................................
.............................. CYCLE    1 ..............................
........................................................................
   1    -16.1952233 -0.161952E+02  0.347E-05    2.10       0.0  T
   2    -16.1952233 -0.913047E-12  0.212E-05    2.10    1488.7  T
   3    -16.1952233 -0.191847E-12  0.813E-06    2.10    3889.9  T
     SCC iter.                  ...        0 min,  0.001 sec
     gradient                   ...        0 min,  0.000 sec
 * total energy  :   -16.0503156 Eh     change       -0.2642153E-10 Eh
   gradient norm :     0.2493127 Eh/α   predicted     0.0000000E+00 (-100.00%)
   displ. norm   :     0.2369331 α      lambda       -0.3645569E-01
   maximum displ.:     0.1274685 α      in ANC's #17, #6, #14, ...

........................................................................
.............................. CYCLE    2 ..............................
........................................................................
   1    -16.2007562 -0.162008E+02  0.565E-01    1.55       0.0  T
   2    -16.2013020 -0.545835E-03  0.416E-01    1.89       1.0  T
   3    -16.2014732 -0.171157E-03  0.237E-01    2.03       1.0  T
   4    -16.2016024 -0.129189E-03  0.148E-01    2.11       1.0  T
   5    -16.2016769 -0.745276E-04  0.897E-02    2.09       1.0  T
   6    -16.2017155 -0.385579E-04  0.252E-02    2.10       1.3  T
   7    -16.2017181 -0.263216E-05  0.504E-03    2.12       6.3  T
   8    -16.2017181 -0.178555E-07  0.128E-03    2.13      24.8  T
   9    -16.2017181 -0.253022E-08  0.750E-04    2.13      42.2  T
  10    -16.2017181 -0.144654E-08  0.405E-04    2.13      78.1  T
     SCC iter.                  ...        0 min,  0.002 sec
     gradient                   ...        0 min,  0.000 sec
 * total energy  :   -16.0772027 Eh     change       -0.2688708E-01 Eh
   gradient norm :     0.1394185 Eh/α   predicted    -0.1925111E-01 ( -28.40%)
   displ. norm   :     0.2747516 α      lambda       -0.2047208E-01
   maximum displ.:     0.1549217 α      in ANC's #6, #4, #23, ...

........................................................................
.............................. CYCLE    3 ..............................
........................................................................
   1    -16.2054245 -0.162054E+02  0.486E-01    1.44       0.0  T
   2    -16.2066421 -0.121762E-02  0.354E-01    2.01       1.0  T
   3    -16.2067664 -0.124233E-03  0.236E-01    2.08       1.0  T
   4    -16.2068584 -0.920581E-04  0.141E-01    2.17       1.0  T
   5    -16.2069172 -0.587467E-04  0.917E-02    2.18       1.0  T
   6    -16.2069580 -0.408207E-04  0.331E-02    2.17       1.0  T
   7    -16.2069634 -0.536770E-05  0.810E-03    2.20       3.9  T
   8    -16.2069635 -0.106705E-06  0.204E-03    2.20      15.5  T
   9    -16.2069635 -0.990321E-08  0.579E-04    2.20      54.7  T
  10    -16.2069635 -0.102373E-08  0.994E-05    2.20     318.0  T
     SCC iter.                  ...        0 min,  0.002 sec
     gradient                   ...        0 min,  0.000 sec
 * total energy  :   -16.0915108 Eh     change       -0.1430811E-01 Eh
   gradient norm :     0.0707799 Eh/α   predicted    -0.1100874E-01 ( -23.06%)
   displ. norm   :     0.2725343 α      lambda       -0.8487608E-02
   maximum displ.:     0.2335464 α      in ANC's #4, #23, #11, ...

........................................................................
.............................. CYCLE    4 ..............................
........................................................................
   1    -16.2108536 -0.162109E+02  0.448E-01    1.50       0.0  T
   2    -16.2123935 -0.153995E-02  0.286E-01    2.11       1.0  T
   3    -16.2125300 -0.136422E-03  0.172E-01    2.08       1.0  T
   4    -16.2125603 -0.303202E-04  0.111E-01    2.12       1.0  T
   5    -16.2125896 -0.292830E-04  0.638E-02    2.13       1.0  T
   6    -16.2126082 -0.186684E-04  0.296E-02    2.13       1.1  T
   7    -16.2126126 -0.432718E-05  0.884E-03    2.14       3.6  T
   8    -16.2126128 -0.259240E-06  0.177E-03    2.14      17.8  T
   9    -16.2126128 -0.310751E-08  0.396E-04    2.14      79.9  T
  10    -16.2126128 -0.717858E-09  0.915E-05    2.14     345.6  T
     SCC iter.                  ...        0 min,  0.002 sec
     gradient                   ...        0 min,  0.000 sec
 * total energy  :   -16.0975554 Eh     change       -0.6044661E-02 Eh
   gradient norm :     0.0378790 Eh/α   predicted    -0.4559013E-02 ( -24.58%)
   displ. norm   :     0.2182058 α      lambda       -0.4268663E-02
   maximum displ.:     0.1123871 α      in ANC's #4, #23, #6, ...

........................................................................
.............................. CYCLE    5 ..............................
........................................................................
   1    -16.2130026 -0.162130E+02  0.644E-01    1.46       0.0  T
   2    -16.2168662 -0.386358E-02  0.389E-01    2.33       1.0  T
   3    -16.2177003 -0.834099E-03  0.164E-01    2.14       1.0  T
   4    -16.2177164 -0.161015E-04  0.106E-01    2.13       1.0  T
   5    -16.2177341 -0.177447E-04  0.503E-02    2.12       1.0  T
   6    -16.2177417 -0.753019E-05  0.353E-02    2.15       1.0  T
   7    -16.2177478 -0.612161E-05  0.115E-02    2.12       2.8  T
   8    -16.2177490 -0.117384E-05  0.175E-03    2.13      18.1  T
   9    -16.2177490 -0.152172E-07  0.689E-04    2.14      45.9  T
  10    -16.2177490 -0.119280E-08  0.929E-05    2.14     340.4  T
     SCC iter.                  ...        0 min,  0.002 sec
     gradient                   ...        0 min,  0.000 sec
 * total energy  :   -16.1005842 Eh     change       -0.3028780E-02 Eh
   gradient norm :     0.0219434 Eh/α   predicted    -0.2235954E-02 ( -26.18%)
   displ. norm   :     0.2235488 α      lambda       -0.2568803E-02
   maximum displ.:     0.1174900 α      in ANC's #4, #23, #3, ...

........................................................................
.............................. CYCLE    6 ..............................
........................................................................
   1    -16.2127422 -0.162127E+02  0.837E-01    1.44       0.0  T
   2    -16.2183646 -0.562237E-02  0.605E-01    2.50       1.0  T
   3    -16.2216013 -0.323670E-02  0.197E-01    2.14       1.0  T
   4    -16.2216886 -0.873218E-04  0.120E-01    2.07       1.0  T
   5    -16.2217026 -0.139784E-04  0.561E-02    2.02       1.0  T
   6    -16.2217086 -0.605209E-05  0.500E-02    2.08       1.0  T
   7    -16.2217252 -0.165522E-04  0.187E-02    2.05       1.7  T
   8    -16.2217271 -0.186289E-05  0.668E-03    2.06       4.7  T
   9    -16.2217272 -0.157378E-06  0.135E-03    2.06      23.4  T
  10    -16.2217272 -0.392169E-08  0.366E-04    2.06      86.4  T
  11    -16.2217272 -0.272291E-09  0.254E-04    2.06     124.6  T
     SCC iter.                  ...        0 min,  0.002 sec
     gradient                   ...        0 min,  0.000 sec
 * total energy  :   -16.1021996 Eh     change       -0.1615342E-02 Eh
   gradient norm :     0.0129353 Eh/α   predicted    -0.1348588E-02 ( -16.51%)
   displ. norm   :     0.2977361 α      lambda       -0.1905574E-02
   maximum displ.:     0.1474630 α      in ANC's #3, #2, #6, ...

........................................................................
.............................. CYCLE    7 ..............................
........................................................................
   1    -16.2083140 -0.162083E+02  0.119E+00    1.55       0.0  T
   2    -16.2173026 -0.898861E-02  0.102E+00    2.90       1.0  T
   3    -16.2275475 -0.102449E-01  0.310E-01    2.34       1.0  T
   4    -16.2280189 -0.471389E-03  0.154E-01    2.21       1.0  T
   5    -16.2280111  0.774399E-05  0.786E-02    2.13       1.0  T
   6    -16.2280528 -0.416319E-04  0.558E-02    2.21       1.0  T
   7    -16.2280729 -0.201142E-04  0.297E-02    2.19       1.1  T
   8    -16.2280776 -0.468807E-05  0.124E-02    2.18       2.6  T
   9    -16.2280783 -0.720275E-06  0.151E-03    2.18      21.0  T
  10    -16.2280783  0.297638E-08  0.815E-04    2.18      38.8  T
  11    -16.2280783 -0.543262E-08  0.189E-04    2.18     167.6  T
     SCC iter.                  ...        0 min,  0.002 sec
     gradient                   ...        0 min,  0.000 sec
 * total energy  :   -16.1029691 Eh     change       -0.7695525E-03 Eh
   gradient norm :     0.0170611 Eh/α   predicted    -0.1037244E-02 (  34.79%)
   displ. norm   :     0.1621852 α      lambda       -0.5555761E-03
   maximum displ.:     0.1062783 α      in ANC's #3, #2, #4, ...

........................................................................
.............................. CYCLE    8 ..............................
........................................................................
   1    -16.2260474 -0.162260E+02  0.224E-01    2.06       0.0  T
   2    -16.2262333 -0.185941E-03  0.159E-01    2.26       1.0  T
   3    -16.2264806 -0.247296E-03  0.573E-02    2.17       1.0  T
   4    -16.2264856 -0.502580E-05  0.288E-02    2.18       1.1  T
   5    -16.2264863 -0.689225E-06  0.105E-02    2.18       3.0  T
   6    -16.2264865 -0.214063E-06  0.733E-03    2.18       4.3  T
   7    -16.2264868 -0.277288E-06  0.380E-03    2.18       8.3  T
   8    -16.2264869 -0.500547E-07  0.138E-03    2.18      22.9  T
   9    -16.2264869 -0.109930E-07  0.608E-04    2.18      52.0  T
  10    -16.2264869 -0.349312E-08  0.123E-04    2.18     258.1  T
     SCC iter.                  ...        0 min,  0.002 sec
     gradient                   ...        0 min,  0.000 sec
 * total energy  :   -16.1033155 Eh     change       -0.3463405E-03 Eh
   gradient norm :     0.0084278 Eh/α   predicted    -0.2850944E-03 ( -17.68%)
   displ. norm   :     0.0946231 α      lambda       -0.1658945E-03
   maximum displ.:     0.0708363 α      in ANC's #3, #2, #8, ...

........................................................................
.............................. CYCLE    9 ..............................
........................................................................
   1    -16.2268303 -0.162268E+02  0.119E-01    2.11       0.0  T
   2    -16.2268835 -0.531880E-04  0.958E-02    2.22       1.0  T
   3    -16.2269712 -0.877345E-04  0.323E-02    2.18       1.0  T
   4    -16.2269719 -0.620785E-06  0.151E-02    2.18       2.1  T
   5    -16.2269721 -0.197862E-06  0.612E-03    2.18       5.2  T
   6    -16.2269722 -0.920024E-07  0.413E-03    2.18       7.7  T
   7    -16.2269722 -0.785618E-07  0.204E-03    2.18      15.5  T
   8    -16.2269723 -0.184736E-07  0.515E-04    2.18      61.4  T
   9    -16.2269723  0.429878E-12  0.222E-04    2.18     142.4  T
     SCC iter.                  ...        0 min,  0.001 sec
     gradient                   ...        0 min,  0.000 sec
 * total energy  :   -16.1034268 Eh     change       -0.1113100E-03 Eh
   gradient norm :     0.0066723 Eh/α   predicted    -0.8368876E-04 ( -24.81%)
   displ. norm   :     0.1164766 α      lambda       -0.1293028E-03
   maximum displ.:     0.0802151 α      in ANC's #2, #3, #8, ...

........................................................................
.............................. CYCLE   10 ..............................
........................................................................
   1    -16.2278571 -0.162279E+02  0.940E-02    2.11       0.0  T
   2    -16.2278792 -0.220169E-04  0.800E-02    2.19       1.0  T
   3    -16.2279323 -0.531403E-04  0.316E-02    2.16       1.0  T
   4    -16.2279328 -0.543497E-06  0.114E-02    2.16       2.8  T
   5    -16.2279330 -0.140243E-06  0.617E-03    2.16       5.1  T
   6    -16.2279331 -0.979806E-07  0.406E-03    2.16       7.8  T
   7    -16.2279332 -0.757742E-07  0.178E-03    2.16      17.8  T
   8    -16.2279332 -0.143816E-07  0.406E-04    2.16      77.9  T
   9    -16.2279332 -0.141959E-09  0.153E-04    2.16     206.0  T
     SCC iter.                  ...        0 min,  0.001 sec
     gradient                   ...        0 min,  0.000 sec
 * total energy  :   -16.1035054 Eh     change       -0.7859301E-04 Eh
   gradient norm :     0.0041709 Eh/α   predicted    -0.6552801E-04 ( -16.62%)
   displ. norm   :     0.0715344 α      lambda       -0.6513341E-04
   maximum displ.:     0.0506360 α      in ANC's #3, #2, #8, ...

........................................................................
.............................. CYCLE   11 ..............................
........................................................................
   1    -16.2283691 -0.162284E+02  0.478E-02    2.15       0.0  T
   2    -16.2283734 -0.426754E-05  0.355E-02    2.18       1.0  T
   3    -16.2283805 -0.710056E-05  0.183E-02    2.16       1.7  T
   4    -16.2283812 -0.730974E-06  0.391E-03    2.17       8.1  T
   5    -16.2283812 -0.166658E-08  0.107E-03    2.17      29.5  T
   6    -16.2283812 -0.270011E-08  0.280E-04    2.17     113.0  T
   7    -16.2283812 -0.103352E-09  0.154E-04    2.17     205.5  T
     SCC iter.                  ...        0 min,  0.001 sec
     gradient                   ...        0 min,  0.000 sec
 * total energy  :   -16.1035511 Eh     change       -0.4570219E-04 Eh
   gradient norm :     0.0028501 Eh/α   predicted    -0.3273137E-04 ( -28.38%)
   displ. norm   :     0.0908928 α      lambda       -0.6239097E-04
   maximum displ.:     0.0568803 α      in ANC's #3, #2, #8, ...

........................................................................
.............................. CYCLE   12 ..............................
........................................................................
   1    -16.2283848 -0.162284E+02  0.443E-02    2.16       0.0  T
   2    -16.2283850 -0.211668E-06  0.264E-02    2.17       1.2  T
   3    -16.2283841  0.876544E-06  0.950E-03    2.16       3.3  T
   4    -16.2283852 -0.103173E-05  0.163E-03    2.17      19.4  T
   5    -16.2283852 -0.673318E-08  0.104E-03    2.17      30.5  T
   6    -16.2283852 -0.157665E-08  0.400E-04    2.17      79.0  T
   7    -16.2283852 -0.460819E-09  0.255E-04    2.17     123.8  T
     SCC iter.                  ...        0 min,  0.001 sec
     gradient                   ...        0 min,  0.000 sec
 * total energy  :   -16.1035877 Eh     change       -0.3658797E-04 Eh
   gradient norm :     0.0017529 Eh/α   predicted    -0.3145199E-04 ( -14.04%)
   displ. norm   :     0.0356038 α      lambda       -0.1450751E-04
   maximum displ.:     0.0214816 α      in ANC's #11, #2, #3, ...

........................................................................
.............................. CYCLE   13 ..............................
........................................................................
   1    -16.2286953 -0.162287E+02  0.734E-02    2.21       0.0  T
   2    -16.2287175 -0.222085E-04  0.580E-02    2.14       1.0  T
   3    -16.2287525 -0.349540E-04  0.160E-02    2.17       2.0  T
   4    -16.2287529 -0.386184E-06  0.958E-03    2.16       3.3  T
   5    -16.2287530 -0.153524E-06  0.444E-03    2.17       7.1  T
   6    -16.2287531 -0.576587E-07  0.284E-03    2.17      11.1  T
   7    -16.2287531 -0.321283E-07  0.151E-03    2.17      20.9  T
   8    -16.2287531 -0.106703E-07  0.257E-04    2.17     123.0  T
   9    -16.2287531 -0.525375E-10  0.831E-05    2.17     380.5  T
     SCC iter.                  ...        0 min,  0.002 sec
     gradient                   ...        0 min,  0.000 sec
 * total energy  :   -16.1035897 Eh     change       -0.2055817E-05 Eh
   gradient norm :     0.0023257 Eh/α   predicted    -0.7259485E-05 ( 253.12%)
   displ. norm   :     0.0123242 α      lambda       -0.7554329E-05
   maximum displ.:     0.0064398 α      in ANC's #3, #2, #11, ...

........................................................................
.............................. CYCLE   14 ..............................
........................................................................
   1    -16.2284829 -0.162285E+02  0.291E-02    2.15       0.0  T
   2    -16.2284862 -0.331453E-05  0.221E-02    2.18       1.4  T
   3    -16.2284916 -0.540403E-05  0.575E-03    2.17       5.5  T
   4    -16.2284917 -0.769507E-07  0.344E-03    2.17       9.2  T
   5    -16.2284917 -0.161434E-07  0.150E-03    2.17      21.1  T
   6    -16.2284917 -0.588120E-08  0.100E-03    2.17      31.5  T
   7    -16.2284917 -0.387848E-08  0.579E-04    2.17      54.7  T
   8    -16.2284917 -0.159656E-08  0.118E-04    2.17     268.2  T
     SCC iter.                  ...        0 min,  0.001 sec
     gradient                   ...        0 min,  0.000 sec
 * total energy  :   -16.1035945 Eh     change       -0.4788593E-05 Eh
   gradient norm :     0.0006438 Eh/α   predicted    -0.3778903E-05 ( -21.09%)
   displ. norm   :     0.0095054 α      lambda       -0.1497726E-05
   maximum displ.:     0.0061754 α      in ANC's #11, #8, #14, ...

........................................................................
.............................. CYCLE   15 ..............................
........................................................................
   1    -16.2284221 -0.162284E+02  0.209E-02    2.15       0.0  T
   2    -16.2284238 -0.174732E-05  0.175E-02    2.17       1.8  T
   3    -16.2284270 -0.323847E-05  0.474E-03    2.17       6.7  T
   4    -16.2284271 -0.160177E-07  0.302E-03    2.17      10.5  T
   5    -16.2284271 -0.163019E-07  0.145E-03    2.17      21.8  T
   6    -16.2284271 -0.648731E-08  0.903E-04    2.17      35.0  T
   7    -16.2284271 -0.333907E-08  0.468E-04    2.17      67.6  T
     SCC iter.                  ...        0 min,  0.001 sec
     gradient                   ...        0 min,  0.000 sec
 * total energy  :   -16.1035951 Eh     change       -0.6437080E-06 Eh
   gradient norm :     0.0003633 Eh/α   predicted    -0.7478605E-06 (  16.18%)
   displ. norm   :     0.0043302 α      lambda       -0.3465287E-06
   maximum displ.:     0.0027598 α      in ANC's #3, #11, #2, ...

   *** GEOMETRY OPTIMIZATION CONVERGED AFTER 15 ITERATIONS ***

------------------------------------------------------------------------
 total energy gain   :        -0.0532795 Eh      -33.4334 kcal/mol
 total RMSD          :         0.4811455 a0        0.2546 Å
 total power (kW/mol):        -9.3256955 (step)-3874.0824 (real)
------------------------------------------------------------------------

 ANCopt (total)                0 d,  0 h,  0 min,  0.036 sec
 optimizer setup                ...        0 min,  0.000 sec (  1.337%)
 model hessian                  ...        0 min,  0.002 sec (  6.016%)
 ANC generation                 ...        0 min,  0.000 sec (  0.883%)
 coordinate transformation      ...        0 min,  0.000 sec (  0.153%)
 single point calculation       ...        0 min,  0.031 sec ( 86.383%)
 optimization log               ...        0 min,  0.000 sec (  1.374%)
 hessian update                 ...        0 min,  0.000 sec (  0.224%)
 rational function              ...        0 min,  0.001 sec (  2.279%)

================
 final structure:
================
10
 xtb: 6.4.1 (afa7bdf)
C        -0.70671598113560    0.17267159611782    0.33219126996347
C         0.66068540469919   -0.09261823786850   -0.01847318429835
Cl        0.94044808171228   -0.54579767767241   -2.01440831424456
H        -0.76068888221692    0.40793397885533    1.43069737990752
H        -1.36010807126374   -0.68585220120703    0.17885431279402
H        -1.11644838794131    1.04308024845753   -0.17957999247581
H         1.08951794996723   -0.99692831726455    0.39380516634338
H         1.33589206696389    0.75203014071508    0.03127935382206
O        -0.97746700177593    0.72911130480081    2.83660124647034
H        -1.92483517900792    0.89231916506438    2.87194276171842
 
 Bond Distances (Angstroems)
 ---------------------------
C1-C2=1.4364         C1-H4=1.1247         C1-H5=1.0897         C1-H6=1.0897         C2-C1=1.4364         C2-Cl3=2.0658        
C2-H7=1.0824         C2-H8=1.0825         Cl3-C2=2.0658        H4-C1=1.1247         H5-C1=1.0897         H6-C1=1.0897         
H7-C2=1.0824         H8-C2=1.0825         O9-H10=0.9620        H10-O9=0.9620        
 C  H  Rav=1.0938 sigma=0.0158  Rmin=1.0824  Rmax=1.1247     5
 C  C  Rav=1.4364 sigma=0.0000  Rmin=1.4364  Rmax=1.4364     1
 O  H  Rav=0.9620 sigma=0.0000  Rmin=0.9620  Rmax=0.9620     1
 Cl C  Rav=2.0658 sigma=0.0000  Rmin=2.0658  Rmax=2.0658     1
 
 selected bond angles (degree)
 --------------------
H4-C1-C2=108.83                H5-C1-C2=113.01                H5-C1-H4=105.87                H6-C1-C2=113.01                
H6-C1-H4=105.88                H6-C1-H5=109.74                Cl3-C2-C1=113.91               H7-C2-C1=116.01                
H7-C2-Cl3= 97.53               H8-C2-C1=116.01                H8-C2-Cl3= 97.53               H8-C2-H7=112.78                
 
 selected dihedral angles (degree)
 ---------------------------------
Cl3-C2-C1-H4=180.00           Cl3-C2-C1-H5= 62.69           Cl3-C2-C1-H6=297.31           H7-C2-C1-H4= 67.92            
H7-C2-C1-H5=310.61            H7-C2-C1-H6=185.23            H8-C2-C1-H4=292.08            H8-C2-C1-H5=174.77            
H8-C2-C1-H6= 49.39            
 
 CMA Distance (Angstroems)
 ---------------------------
R(CMA):  4.2728
           -------------------------------------------------
          |                Final Singlepoint                |
           -------------------------------------------------

          ...................................................
          :                      SETUP                      :
          :.................................................:
          :  # basis functions                  28          :
          :  # atomic orbitals                  27          :
          :  # shells                           15          :
          :  # electrons                        28          :
          :  max. iterations                   250          :
          :  Hamiltonian                  GFN2-xTB          :
          :  restarted?                      false          :
          :  GBSA solvation                  false          :
          :  PC potential                    false          :
          :  electronic temp.          300.0000000     K    :
          :  accuracy                    1.0000000          :
          :  -> integral cutoff          0.2500000E+02      :
          :  -> integral neglect         0.1000000E-07      :
          :  -> SCF convergence          0.1000000E-05 Eh   :
          :  -> wf. convergence          0.1000000E-03 e    :
          :  Broyden damping             0.4000000          :
          ...................................................

 iter      E             dE          RMSdq      gap      omega  full diag
   1    -16.2284271 -0.162284E+02  0.678E-05    2.17       0.0  T
   2    -16.2284271 -0.183675E-11  0.468E-05    2.17     675.9  T
   3    -16.2284271 -0.632383E-12  0.218E-05    2.17    1452.7  T

   *** convergence criteria satisfied after 3 iterations ***

         #    Occupation            Energy/Eh            Energy/eV
      -------------------------------------------------------------
         1        2.0000           -0.8804259             -23.9576
       ...           ...                  ...                  ...
         8        2.0000           -0.2947426              -8.0204
         9        2.0000           -0.2828008              -7.6954
        10        2.0000           -0.2605422              -7.0897
        11        2.0000           -0.2509145              -6.8277
        12        2.0000           -0.2493110              -6.7841
        13        2.0000           -0.1578765              -4.2960
        14        2.0000           -0.1519543              -4.1349 (HOMO)
        15                         -0.0723389              -1.9684 (LUMO)
        16                          0.2138591               5.8194
        17                          0.2152111               5.8562
        18                          0.2156200               5.8673
        19                          0.2157029               5.8696
       ...                                ...                  ...
        27                          0.5135640              13.9748
      -------------------------------------------------------------
                  HL-Gap            0.0796154 Eh            2.1664 eV
             Fermi-level           -0.1121466 Eh           -3.0517 eV

 SCC (total)                   0 d,  0 h,  0 min,  0.001 sec
 SCC setup                      ...        0 min,  0.000 sec (  3.890%)
 Dispersion                     ...        0 min,  0.000 sec (  1.556%)
 classical contributions        ...        0 min,  0.000 sec (  0.556%)
 integral evaluation            ...        0 min,  0.000 sec ( 14.302%)
 iterations                     ...        0 min,  0.001 sec ( 47.481%)
 molecular gradient             ...        0 min,  0.000 sec ( 26.510%)
 printout                       ...        0 min,  0.000 sec (  4.668%)

         :::::::::::::::::::::::::::::::::::::::::::::::::::::
         ::                     SUMMARY                     ::
         :::::::::::::::::::::::::::::::::::::::::::::::::::::
         :: total energy             -16.103595141368 Eh    ::
         :: gradient norm              0.000361823169 Eh/a0 ::
         :: HOMO-LUMO gap              2.166446476650 eV    ::
         ::.................................................::
         :: SCC energy               -16.228427092514 Eh    ::
         :: -> isotropic ES            0.191880108792 Eh    ::
         :: -> anisotropic ES         -0.002906247214 Eh    ::
         :: -> anisotropic XC          0.002755629825 Eh    ::
         :: -> dispersion             -0.004559311361 Eh    ::
         :: repulsion energy           0.124393538374 Eh    ::
         :: add. restraining           0.000440803270 Eh    ::
         :: total charge              -1.000000000000 e     ::
         :::::::::::::::::::::::::::::::::::::::::::::::::::::

========================================================================
 RELAXED SCAN
------------------------------------------------------------------------
 output written to xtbscan.log
 scaning constraint 1
... step 1 ...
 current energy:         -16.10247045
    bias energy:           0.00052431
unbiased energy:         -16.10299475
... step 2 ...
 current energy:         -16.11879782
    bias energy:           0.00024309
unbiased energy:         -16.11904091
... step 3 ...
 current energy:         -16.13024877
    bias energy:           0.00005007
unbiased energy:         -16.13029884
... step 4 ...
 current energy:         -16.13443539
    bias energy:           0.00000384
unbiased energy:         -16.13443922
... step 5 ...
 current energy:         -16.13536914
    bias energy:           0.00000008
unbiased energy:         -16.13536922
... step 6 ...
 current energy:         -16.13559529
    bias energy:           0.00000004
unbiased energy:         -16.13559533
... step 7 ...
 current energy:         -16.13583901
    bias energy:           0.00000008
unbiased energy:         -16.13583909
... step 8 ...
 current energy:         -16.15051767
    bias energy:           0.00000223
unbiased energy:         -16.15051991
... step 9 ...
 current energy:         -16.15128887
    bias energy:           0.00000002
unbiased energy:         -16.15128888
... step 10 ...
 current energy:         -16.15166450
    bias energy:           0.00000000
unbiased energy:         -16.15166450
           -------------------------------------------------
          |                Property Printout                |
           -------------------------------------------------

    * Orbital Energies and Occupations

         #    Occupation            Energy/Eh            Energy/eV
      -------------------------------------------------------------
         1        2.0000           -0.7946847             -21.6245
         2        2.0000           -0.5014193             -13.6443
         3        2.0000           -0.4773676             -12.9898
         4        2.0000           -0.4178631             -11.3706
         5        2.0000           -0.3803171             -10.3490
         6        2.0000           -0.3740706             -10.1790
         7        2.0000           -0.3388319              -9.2201
         8        2.0000           -0.3360813              -9.1452
         9        2.0000           -0.2966048              -8.0710
        10        2.0000           -0.2835030              -7.7145
        11        2.0000           -0.2672390              -7.2719
        12        2.0000           -0.1966413              -5.3509
        13        2.0000           -0.1941222              -5.2823
        14        2.0000           -0.1939943              -5.2789 (HOMO)
        15                         -0.0750283              -2.0416 (LUMO)
        16                          0.2574195               7.0047
        17                          0.2732471               7.4354
        18                          0.2883195               7.8456
        19                          0.3171935               8.6313
        20                          0.3267654               8.8917
        21                          0.3275930               8.9143
        22                          0.3287122               8.9447
        23                          0.3299765               8.9791
        24                          0.3629144               9.8754
        25                          0.4442436              12.0885
       ...                                ...                  ...
        27                          0.7358065              20.0223
      -------------------------------------------------------------
                  HL-Gap            0.1189659 Eh            3.2372 eV
             Fermi-level           -0.1345113 Eh           -3.6602 eV

     #   Z          covCN         q      C6AA      α(0)
     1   6 C        2.832    -0.086    30.149     8.998
     2   6 C        2.832    -0.079    29.965     8.970
     3  17 Cl       0.016    -0.954   125.135    17.025
     4   1 H        0.819     0.326     0.645     1.261
     5   1 H        0.926     0.051     2.312     2.378
     6   1 H        0.925    -0.001     3.081     2.745
     7   1 H        0.926     0.096     1.822     2.111
     8   1 H        0.925     0.009     2.911     2.668
     9   8 O        1.608    -0.613    25.505     6.816
    10   1 H        0.805     0.252     0.884     1.476

 Mol. C6AA /au·bohr⁶  :       1239.423575
 Mol. C8AA /au·bohr⁸  :      33003.475301
 Mol. α(0) /au        :         54.447327


Wiberg/Mayer (AO) data.
largest (>0.10) Wiberg bond orders for each atom

 ---------------------------------------------------------------------------
     #   Z sym  total        # sym  WBO       # sym  WBO       # sym  WBO
 ---------------------------------------------------------------------------
     1   6 C    3.992 --     2 C    2.036     6 H    0.978     5 H    0.974
     2   6 C    3.984 --     1 C    2.036     8 H    0.979     7 H    0.960
     3  17 Cl   0.090 --     4   1 H    0.894 --     9 O    0.845
     5   1 H    0.997 --     1 C    0.974
     6   1 H    1.000 --     1 C    0.978
     7   1 H    0.991 --     2 C    0.960
     8   1 H    1.000 --     2 C    0.979
     9   8 O    1.808 --    10 H    0.934     4 H    0.845
    10   1 H    0.936 --     9 O    0.934
 ---------------------------------------------------------------------------

Topologies differ in total number of bonds
Writing topology from bond orders to xtbtopo.mol

molecular dipole:
                 x           y           z       tot (Debye)
 q only:       -3.553       1.215      -2.770
   full:       -3.243       1.263      -2.978      11.642
molecular quadrupole (traceless):
                xx          xy          yy          xz          yz          zz
 q only:      -13.752       7.780      14.719     -12.919       5.075      -0.966
  q+dip:      -10.700       6.523      13.601     -11.089       5.141      -2.902
   full:      -11.311       6.669      14.754     -11.112       5.336      -3.444

           -------------------------------------------------
          |                Geometry Summary                 |
           -------------------------------------------------

      molecular mass/u    :       81.5214588
   center of mass at/Å    :        0.7004871      -0.1536798       0.9963975
  moments of inertia/u·Å² :        0.1039284E+03   0.2515898E+03   0.3519106E+03
rotational constants/cm⁻¹ :        0.1622043E+00   0.6700442E-01   0.4790317E-01

 * 7 selected distances

     #   Z          #   Z                                           value/Å
     1   6 C        2   6 C                                       1.3168938 (max)
     1   6 C        5   1 H                                       1.0774501
     1   6 C        6   1 H                                       1.0829471
     2   6 C        7   1 H                                       1.0787897
     2   6 C        8   1 H                                       1.0813897
     4   1 H        9   8 O                                       0.9831798
     9   8 O       10   1 H                                       0.9597145 (min)

 * 3 distinct bonds (by element types)

   Z      Z             #   av. dist./Å        max./Å        min./Å
   1 H    6 C           4     1.0801441     1.0829471     1.0774501
   6 C    6 C           1     1.3168938     1.3168938     1.3168938
   1 H    8 O           2     0.9714472     0.9831798     0.9597145


optimized geometry written to: xtbopt.xyz


           -------------------------------------------------
          | TOTAL ENERGY              -16.103595141368 Eh   |
          | GRADIENT NORM               0.000361823169 Eh/α |
          | HOMO-LUMO GAP               3.237227876548 eV   |
           -------------------------------------------------

------------------------------------------------------------------------
 * finished run on 2022/08/14 at 12:07:03.912     
------------------------------------------------------------------------
 total:
 * wall-time:     0 d,  0 h,  0 min,  0.947 sec
 *  cpu-time:     0 d,  0 h,  0 min, 14.772 sec
 * ratio c/w:    15.607 speedup
 SCF:
 * wall-time:     0 d,  0 h,  0 min,  0.003 sec
 *  cpu-time:     0 d,  0 h,  0 min,  0.032 sec
 * ratio c/w:     9.603 speedup
 ANC optimizer:
 * wall-time:     0 d,  0 h,  0 min,  0.829 sec
 *  cpu-time:     0 d,  0 h,  0 min, 13.285 sec
 * ratio c/w:    16.029 speedup

normal termination of xtb
