      -----------------------------------------------------------      
     |                   =====================                   |     
     |                           x T B                           |     
     |                   =====================                   |     
     |                         S. Grimme                         |     
     |          Mulliken Center for Theoretical Chemistry        |     
     |                    University of Bonn                     |     
      -----------------------------------------------------------      

   * xtb version 6.5.1 (579679a) compiled by 'ehlert@majestix' on 2022-07-11

   xtb is free software: you can redistribute it and/or modify it under
   the terms of the GNU Lesser General Public License as published by
   the Free Software Foundation, either version 3 of the License, or
   (at your option) any later version.
   
   xtb is distributed in the hope that it will be useful,
   but WITHOUT ANY WARRANTY; without even the implied warranty of
   MERCHANTABILITY or FITNESS FOR A PARTICULAR PURPOSE.  See the
   GNU Lesser General Public License for more details.
   
   Cite this work as:
   * C. Bannwarth, E. Caldeweyher, S. Ehlert, A. Hansen, P. Pracht,
     J. Seibert, S. Spicher, S. Grimme, WIREs Comput. Mol. Sci., 2020, 11,
     e01493. DOI: 10.1002/wcms.1493
   
   for GFN2-xTB:
   * C. Bannwarth, S. Ehlert and S. Grimme., J. Chem. Theory Comput., 2019,
     15, 1652-1671. DOI: 10.1021/acs.jctc.8b01176
   for GFN1-xTB:
   * S. Grimme, C. Bannwarth, P. Shushkov, J. Chem. Theory Comput., 2017,
     13, 1989-2009. DOI: 10.1021/acs.jctc.7b00118
   for GFN0-xTB:
   * P. Pracht, E. Caldeweyher, S. Ehlert, S. Grimme, ChemRxiv, 2019, preprint.
     DOI: 10.26434/chemrxiv.8326202.v1
   for GFN-FF:
   * S. Spicher and S. Grimme, Angew. Chem. Int. Ed., 2020, 59, 15665-15673.
     DOI: 10.1002/anie.202004239
   
   for ALPB and GBSA implicit solvation:
   * S. Ehlert, M. Stahn, S. Spicher, S. Grimme, J. Chem. Theory Comput.,
     2021, 17, 4250-4261. DOI: 10.1021/acs.jctc.1c00471
   
   for DFT-D4:
   * E. Caldeweyher, C. Bannwarth and S. Grimme, J. Chem. Phys., 2017,
     147, 034112. DOI: 10.1063/1.4993215
   * E. Caldeweyher, S. Ehlert, A. Hansen, H. Neugebauer, S. Spicher,
     C. Bannwarth and S. Grimme, J. Chem. Phys., 2019, 150, 154122.
     DOI: 10.1063/1.5090222
   * E. Caldeweyher, J.-M. Mewes, S. Ehlert and S. Grimme, Phys. Chem. Chem. Phys.
     2020, 22, 8499-8512. DOI: 10.1039/D0CP00502A
   
   for sTDA-xTB:
   * S. Grimme and C. Bannwarth, J. Chem. Phys., 2016, 145, 054103.
     DOI: 10.1063/1.4959605
   
   in the mass-spec context:
   * V. Asgeirsson, C. Bauer and S. Grimme, Chem. Sci., 2017, 8, 4879.
     DOI: 10.1039/c7sc00601b
   * J. Koopman and S. Grimme, ACS Omega 2019, 4, 12, 15120-15133.
     DOI: 10.1021/acsomega.9b02011
   
   for metadynamics refer to:
   * S. Grimme, J. Chem. Theory Comput., 2019, 155, 2847-2862
     DOI: 10.1021/acs.jctc.9b00143
   
   for SPH calculations refer to:
   * S. Spicher and S. Grimme, J. Chem. Theory Comput., 2021, 17, 1701-1714
     DOI: 10.1021/acs.jctc.0c01306
   
   with help from (in alphabetical order)
   P. Atkinson, C. Bannwarth, F. Bohle, G. Brandenburg, E. Caldeweyher
   M. Checinski, S. Dohm, S. Ehlert, S. Ehrlich, I. Gerasimov, C. Hölzer
   A. Katbashev, J. Koopman, C. Lavigne, S. Lehtola, F. März, M. Müller,
   F. Musil, H. Neugebauer, J. Pisarek, C. Plett, P. Pracht, F. Pultar,
   J. Seibert, P. Shushkov, S. Spicher, M. Stahn, M. Steiner, T. Strunk,
   J. Stückrath, T. Rose, and J. Unsleber
   
 * started run on 2022/09/05 at 11:04:14.534     

           -------------------------------------------------
          |                Calculation Setup                |
           -------------------------------------------------

          program call               : xtb in.xyz --opt tight --input input --chrg -1
          hostname                   : web
          coordinate file            : in.xyz
          omp threads                :                    16

   ID    Z sym.   atoms
    1    6 C      1, 2
    2   17 Cl     3
    3    1 H      4-8, 10
    4    8 O      9
constraining bond 1 4 to    1.1136019 Å, actual value:    1.1136019 Å

molecular fragmentation (1/2 indicates fragments):
1111111122
# atoms in fragment 1/2:     8     2
 fragment masses (1/2) :       64.51       17.01
CMA distance (Bohr)    :   8.089
constraining FC (au)   :  1.0000

           -------------------------------------------------
          |                 G F N 2 - x T B                 |
           -------------------------------------------------

        Reference                      10.1021/acs.jctc.8b01176
      * Hamiltonian:
        H0-scaling (s, p, d)           1.850000    2.230000    2.230000
        zeta-weighting                 0.500000
      * Dispersion:
        s8                             2.700000
        a1                             0.520000
        a2                             5.000000
        s9                             5.000000
      * Repulsion:
        kExp                           1.500000    1.000000
        rExp                           1.000000
      * Coulomb:
        alpha                          2.000000
        third order                    shell-resolved
        anisotropic                    true
        a3                             3.000000
        a5                             4.000000
        cn-shift                       1.200000
        cn-exp                         4.000000
        max-rad                        5.000000


          ...................................................
          :                      SETUP                      :
          :.................................................:
          :  # basis functions                  28          :
          :  # atomic orbitals                  27          :
          :  # shells                           15          :
          :  # electrons                        28          :
          :  max. iterations                   250          :
          :  Hamiltonian                  GFN2-xTB          :
          :  restarted?                      false          :
          :  GBSA solvation                  false          :
          :  PC potential                    false          :
          :  electronic temp.          300.0000000     K    :
          :  accuracy                    1.0000000          :
          :  -> integral cutoff          0.2500000E+02      :
          :  -> integral neglect         0.1000000E-07      :
          :  -> SCF convergence          0.1000000E-05 Eh   :
          :  -> wf. convergence          0.1000000E-03 e    :
          :  Broyden damping             0.4000000          :
          ...................................................

 iter      E             dE          RMSdq      gap      omega  full diag
   1    -16.0812883 -0.160813E+02  0.548E+00    8.06       0.0  T
   2    -16.1852041 -0.103916E+00  0.334E+00    4.91       1.0  T
   3    -16.1900370 -0.483289E-02  0.182E+00    3.40       1.0  T
   4    -16.1928142 -0.277725E-02  0.728E-01    2.11       1.0  T
   5    -16.1938823 -0.106808E-02  0.514E-01    2.21       1.0  T
   6    -16.1947054 -0.823105E-03  0.329E-01    2.27       1.0  T
   7    -16.1952191 -0.513739E-03  0.611E-02    2.11       1.0  T
   8    -16.1952222 -0.306321E-05  0.239E-02    2.13       1.3  T
   9    -16.1952231 -0.915572E-06  0.550E-03    2.10       5.7  T
  10    -16.1952232 -0.357258E-07  0.244E-03    2.10      12.9  T
  11    -16.1952232 -0.124504E-07  0.148E-03    2.10      21.3  T
  12    -16.1952232 -0.733597E-08  0.470E-04    2.10      67.3  T
  13    -16.1952232 -0.310010E-09  0.145E-04    2.10     218.3  T

   *** convergence criteria satisfied after 13 iterations ***

         #    Occupation            Energy/Eh            Energy/eV
      -------------------------------------------------------------
         1        2.0000           -0.9561825             -26.0190
       ...           ...                  ...                  ...
         8        2.0000           -0.3171116              -8.6290
         9        2.0000           -0.2999021              -8.1608
        10        2.0000           -0.2873279              -7.8186
        11        2.0000           -0.2815140              -7.6604
        12        2.0000           -0.1796664              -4.8890
        13        2.0000           -0.0619557              -1.6859
        14        2.0000           -0.0588543              -1.6015 (HOMO)
        15                          0.0183745               0.5000 (LUMO)
        16                          0.1222055               3.3254
        17                          0.1266735               3.4470
        18                          0.1345918               3.6624
        19                          0.1349666               3.6726
       ...                                ...                  ...
        27                          0.7431145              20.2212
      -------------------------------------------------------------
                  HL-Gap            0.0772288 Eh            2.1015 eV
             Fermi-level           -0.0202399 Eh           -0.5508 eV

 SCC (total)                   0 d,  0 h,  0 min,  0.005 sec
 SCC setup                      ...        0 min,  0.000 sec (  2.878%)
 Dispersion                     ...        0 min,  0.000 sec (  1.079%)
 classical contributions        ...        0 min,  0.000 sec (  0.343%)
 integral evaluation            ...        0 min,  0.000 sec (  8.383%)
 iterations                     ...        0 min,  0.004 sec ( 72.589%)
 molecular gradient             ...        0 min,  0.001 sec ( 12.092%)
 printout                       ...        0 min,  0.000 sec (  2.172%)

         :::::::::::::::::::::::::::::::::::::::::::::::::::::
         ::                     SUMMARY                     ::
         :::::::::::::::::::::::::::::::::::::::::::::::::::::
         :: total energy             -16.050315649704 Eh    ::
         :: gradient norm              0.249310680361 Eh/a0 ::
         :: HOMO-LUMO gap              2.101503620668 eV    ::
         ::.................................................::
         :: SCC energy               -16.195223184238 Eh    ::
         :: -> isotropic ES            0.253043580113 Eh    ::
         :: -> anisotropic ES         -0.012526480830 Eh    ::
         :: -> anisotropic XC         -0.033247422706 Eh    ::
         :: -> dispersion             -0.004752964965 Eh    ::
         :: repulsion energy           0.144907865763 Eh    ::
         :: add. restraining           0.000000000000 Eh    ::
         :: total charge              -1.000000000000 e     ::
         :::::::::::::::::::::::::::::::::::::::::::::::::::::

      ----------------------------------------------------------- 
     |                   =====================                   |
     |                        A N C O P T                        |
     |                   =====================                   |
     |               Approximate Normal Coordinate               |
     |                Rational Function Optimizer                |
      ----------------------------------------------------------- 

          ...................................................
          :                      SETUP                      :
          :.................................................:
          :   optimization level             tight          :
          :   max. optcycles                   200          :
          :   ANC micro-cycles                  20          :
          :   degrees of freedom                24          :
          :.................................................:
          :   RF solver                   davidson          :
          :   write xtbopt.log                true          :
          :   linear?                        false          :
          :   energy convergence         0.1000000E-05 Eh   :
          :   grad. convergence          0.8000000E-03 Eh/α :
          :   maximium RF displ.         1.0000000          :
          :   Hlow (freq-cutoff)         0.1000000E-01      :
          :   Hmax (freq-cutoff)         5.0000000          :
          :   S6 in model hess.         20.0000000          :
          ...................................................

generating ANC from model Hessian ...
Using Lindh-Hessian (1995)
 Shifting diagonal of input Hessian by   1.000778560418584E-002
 Lowest  eigenvalues of input Hessian
    0.010000    0.000000    0.000000    0.000000    0.000000    0.000000
    0.000000    0.010652    0.011081    0.014798    0.030958    0.037473
    0.053087    0.058663    0.076180    0.096768    0.105012    0.142860
 Highest eigenvalues
    1.104856    1.222907    1.230624    1.308589    2.422396    5.008194
 

........................................................................
.............................. CYCLE    1 ..............................
........................................................................
   1    -16.1952232 -0.161952E+02  0.347E-05    2.10       0.0  T
   2    -16.1952232 -0.916600E-12  0.212E-05    2.10    1488.8  T
   3    -16.1952232 -0.184741E-12  0.813E-06    2.10    3889.9  T
     SCC iter.                  ...        0 min,  0.001 sec
     gradient                   ...        0 min,  0.000 sec
 * total energy  :   -16.0503156 Eh     change       -0.2640022E-10 Eh
   gradient norm :     0.2493124 Eh/α   predicted     0.0000000E+00 (-100.00%)
   displ. norm   :     0.2369332 α      lambda       -0.3645563E-01
   maximum displ.:     0.1274683 α      in ANC's #17, #6, #14, ...

........................................................................
.............................. CYCLE    2 ..............................
........................................................................
   1    -16.2007562 -0.162008E+02  0.565E-01    1.55       0.0  T
   2    -16.2013020 -0.545835E-03  0.416E-01    1.89       1.0  T
   3    -16.2014732 -0.171157E-03  0.237E-01    2.03       1.0  T
   4    -16.2016023 -0.129189E-03  0.148E-01    2.11       1.0  T
   5    -16.2016769 -0.745276E-04  0.897E-02    2.09       1.0  T
   6    -16.2017154 -0.385579E-04  0.252E-02    2.10       1.3  T
   7    -16.2017181 -0.263217E-05  0.504E-03    2.12       6.3  T
   8    -16.2017181 -0.178555E-07  0.128E-03    2.13      24.8  T
   9    -16.2017181 -0.253023E-08  0.750E-04    2.13      42.2  T
  10    -16.2017181 -0.144654E-08  0.405E-04    2.13      78.1  T
     SCC iter.                  ...        0 min,  0.003 sec
     gradient                   ...        0 min,  0.001 sec
 * total energy  :   -16.0772027 Eh     change       -0.2688705E-01 Eh
   gradient norm :     0.1394183 Eh/α   predicted    -0.1925108E-01 ( -28.40%)
   displ. norm   :     0.2747519 α      lambda       -0.2047206E-01
   maximum displ.:     0.1549223 α      in ANC's #6, #4, #23, ...

........................................................................
.............................. CYCLE    3 ..............................
........................................................................
   1    -16.2054245 -0.162054E+02  0.486E-01    1.44       0.0  T
   2    -16.2066421 -0.121762E-02  0.354E-01    2.01       1.0  T
   3    -16.2067664 -0.124233E-03  0.236E-01    2.08       1.0  T
   4    -16.2068584 -0.920579E-04  0.141E-01    2.17       1.0  T
   5    -16.2069172 -0.587467E-04  0.917E-02    2.18       1.0  T
   6    -16.2069580 -0.408207E-04  0.331E-02    2.17       1.0  T
   7    -16.2069634 -0.536772E-05  0.810E-03    2.20       3.9  T
   8    -16.2069635 -0.106705E-06  0.204E-03    2.20      15.5  T
   9    -16.2069635 -0.990326E-08  0.579E-04    2.20      54.7  T
  10    -16.2069635 -0.102370E-08  0.994E-05    2.20     318.0  T
     SCC iter.                  ...        0 min,  0.003 sec
     gradient                   ...        0 min,  0.000 sec
 * total energy  :   -16.0915108 Eh     change       -0.1430809E-01 Eh
   gradient norm :     0.0707799 Eh/α   predicted    -0.1100873E-01 ( -23.06%)
   displ. norm   :     0.2725353 α      lambda       -0.8487621E-02
   maximum displ.:     0.2335475 α      in ANC's #4, #23, #11, ...

........................................................................
.............................. CYCLE    4 ..............................
........................................................................
   1    -16.2108536 -0.162109E+02  0.448E-01    1.50       0.0  T
   2    -16.2123936 -0.153996E-02  0.286E-01    2.11       1.0  T
   3    -16.2125300 -0.136424E-03  0.172E-01    2.08       1.0  T
   4    -16.2125603 -0.303203E-04  0.111E-01    2.12       1.0  T
   5    -16.2125896 -0.292831E-04  0.638E-02    2.13       1.0  T
   6    -16.2126082 -0.186684E-04  0.296E-02    2.13       1.1  T
   7    -16.2126126 -0.432721E-05  0.884E-03    2.14       3.6  T
   8    -16.2126128 -0.259242E-06  0.177E-03    2.14      17.8  T
   9    -16.2126128 -0.310745E-08  0.396E-04    2.14      79.9  T
  10    -16.2126128 -0.717836E-09  0.915E-05    2.14     345.6  T
     SCC iter.                  ...        0 min,  0.002 sec
     gradient                   ...        0 min,  0.001 sec
 * total energy  :   -16.0975555 Eh     change       -0.6044665E-02 Eh
   gradient norm :     0.0378790 Eh/α   predicted    -0.4559018E-02 ( -24.58%)
   displ. norm   :     0.2182061 α      lambda       -0.4268657E-02
   maximum displ.:     0.1123871 α      in ANC's #4, #23, #6, ...

........................................................................
.............................. CYCLE    5 ..............................
........................................................................
   1    -16.2130026 -0.162130E+02  0.644E-01    1.46       0.0  T
   2    -16.2168662 -0.386359E-02  0.389E-01    2.33       1.0  T
   3    -16.2177003 -0.834102E-03  0.164E-01    2.14       1.0  T
   4    -16.2177164 -0.161015E-04  0.106E-01    2.13       1.0  T
   5    -16.2177342 -0.177447E-04  0.503E-02    2.12       1.0  T
   6    -16.2177417 -0.753015E-05  0.353E-02    2.15       1.0  T
   7    -16.2177478 -0.612161E-05  0.115E-02    2.12       2.8  T
   8    -16.2177490 -0.117385E-05  0.175E-03    2.13      18.1  T
   9    -16.2177490 -0.152166E-07  0.689E-04    2.14      45.9  T
  10    -16.2177490 -0.119278E-08  0.929E-05    2.14     340.4  T
     SCC iter.                  ...        0 min,  0.002 sec
     gradient                   ...        0 min,  0.001 sec
 * total energy  :   -16.1005842 Eh     change       -0.3028775E-02 Eh
   gradient norm :     0.0219434 Eh/α   predicted    -0.2235950E-02 ( -26.18%)
   displ. norm   :     0.2235500 α      lambda       -0.2568814E-02
   maximum displ.:     0.1174910 α      in ANC's #4, #23, #3, ...

........................................................................
.............................. CYCLE    6 ..............................
........................................................................
   1    -16.2127421 -0.162127E+02  0.837E-01    1.44       0.0  T
   2    -16.2183646 -0.562241E-02  0.605E-01    2.50       1.0  T
   3    -16.2216013 -0.323674E-02  0.197E-01    2.14       1.0  T
   4    -16.2216886 -0.873232E-04  0.120E-01    2.07       1.0  T
   5    -16.2217026 -0.139784E-04  0.561E-02    2.02       1.0  T
   6    -16.2217086 -0.605224E-05  0.500E-02    2.08       1.0  T
   7    -16.2217252 -0.165523E-04  0.187E-02    2.05       1.7  T
   8    -16.2217271 -0.186290E-05  0.668E-03    2.06       4.7  T
   9    -16.2217272 -0.157382E-06  0.135E-03    2.06      23.4  T
  10    -16.2217272 -0.392180E-08  0.366E-04    2.06      86.4  T
  11    -16.2217272 -0.272319E-09  0.254E-04    2.06     124.6  T
     SCC iter.                  ...        0 min,  0.002 sec
     gradient                   ...        0 min,  0.000 sec
 * total energy  :   -16.1021996 Eh     change       -0.1615339E-02 Eh
   gradient norm :     0.0129354 Eh/α   predicted    -0.1348591E-02 ( -16.51%)
   displ. norm   :     0.2977317 α      lambda       -0.1905557E-02
   maximum displ.:     0.1474600 α      in ANC's #3, #2, #6, ...

........................................................................
.............................. CYCLE    7 ..............................
........................................................................
   1    -16.2083146 -0.162083E+02  0.119E+00    1.55       0.0  T
   2    -16.2173030 -0.898832E-02  0.102E+00    2.90       1.0  T
   3    -16.2275475 -0.102445E-01  0.310E-01    2.34       1.0  T
   4    -16.2280189 -0.471360E-03  0.154E-01    2.21       1.0  T
   5    -16.2280111  0.774284E-05  0.786E-02    2.13       1.0  T
   6    -16.2280527 -0.416280E-04  0.558E-02    2.21       1.0  T
   7    -16.2280729 -0.201139E-04  0.297E-02    2.19       1.1  T
   8    -16.2280775 -0.468785E-05  0.124E-02    2.18       2.6  T
   9    -16.2280783 -0.720250E-06  0.151E-03    2.18      21.0  T
  10    -16.2280783  0.297603E-08  0.815E-04    2.18      38.8  T
  11    -16.2280783 -0.543200E-08  0.189E-04    2.18     167.6  T
     SCC iter.                  ...        0 min,  0.002 sec
     gradient                   ...        0 min,  0.000 sec
 * total energy  :   -16.1029691 Eh     change       -0.7695539E-03 Eh
   gradient norm :     0.0170611 Eh/α   predicted    -0.1037242E-02 (  34.78%)
   displ. norm   :     0.1621879 α      lambda       -0.5555642E-03
   maximum displ.:     0.1062804 α      in ANC's #3, #2, #4, ...

........................................................................
.............................. CYCLE    8 ..............................
........................................................................
   1    -16.2260474 -0.162260E+02  0.224E-01    2.06       0.0  T
   2    -16.2262333 -0.185956E-03  0.159E-01    2.26       1.0  T
   3    -16.2264806 -0.247318E-03  0.573E-02    2.17       1.0  T
   4    -16.2264857 -0.502563E-05  0.288E-02    2.18       1.1  T
   5    -16.2264863 -0.689267E-06  0.105E-02    2.18       3.0  T
   6    -16.2264866 -0.214065E-06  0.733E-03    2.18       4.3  T
   7    -16.2264868 -0.277317E-06  0.380E-03    2.18       8.3  T
   8    -16.2264869 -0.500604E-07  0.138E-03    2.18      22.9  T
   9    -16.2264869 -0.109934E-07  0.608E-04    2.18      52.0  T
  10    -16.2264869 -0.349372E-08  0.123E-04    2.18     258.0  T
     SCC iter.                  ...        0 min,  0.002 sec
     gradient                   ...        0 min,  0.000 sec
 * total energy  :   -16.1033155 Eh     change       -0.3463385E-03 Eh
   gradient norm :     0.0084278 Eh/α   predicted    -0.2850902E-03 ( -17.68%)
   displ. norm   :     0.0946236 α      lambda       -0.1658920E-03
   maximum displ.:     0.0708366 α      in ANC's #3, #2, #8, ...

........................................................................
.............................. CYCLE    9 ..............................
........................................................................
   1    -16.2268303 -0.162268E+02  0.119E-01    2.11       0.0  T
   2    -16.2268835 -0.531897E-04  0.958E-02    2.22       1.0  T
   3    -16.2269713 -0.877372E-04  0.323E-02    2.18       1.0  T
   4    -16.2269719 -0.620798E-06  0.151E-02    2.18       2.1  T
   5    -16.2269721 -0.197868E-06  0.612E-03    2.18       5.2  T
   6    -16.2269722 -0.920041E-07  0.413E-03    2.18       7.7  T
   7    -16.2269722 -0.785639E-07  0.204E-03    2.18      15.5  T
   8    -16.2269723 -0.184743E-07  0.515E-04    2.18      61.4  T
   9    -16.2269723  0.429878E-12  0.222E-04    2.18     142.4  T
     SCC iter.                  ...        0 min,  0.001 sec
     gradient                   ...        0 min,  0.001 sec
 * total energy  :   -16.1034268 Eh     change       -0.1113104E-03 Eh
   gradient norm :     0.0066723 Eh/α   predicted    -0.8368999E-04 ( -24.81%)
   displ. norm   :     0.1164777 α      lambda       -0.1292992E-03
   maximum displ.:     0.0802161 α      in ANC's #2, #3, #8, ...

........................................................................
.............................. CYCLE   10 ..............................
........................................................................
   1    -16.2278571 -0.162279E+02  0.940E-02    2.11       0.0  T
   2    -16.2278792 -0.220173E-04  0.800E-02    2.19       1.0  T
   3    -16.2279323 -0.531415E-04  0.316E-02    2.16       1.0  T
   4    -16.2279328 -0.543507E-06  0.114E-02    2.16       2.8  T
   5    -16.2279330 -0.140249E-06  0.617E-03    2.16       5.1  T
   6    -16.2279331 -0.979837E-07  0.406E-03    2.16       7.8  T
   7    -16.2279332 -0.757764E-07  0.178E-03    2.16      17.8  T
   8    -16.2279332 -0.143821E-07  0.406E-04    2.16      77.9  T
   9    -16.2279332 -0.141970E-09  0.153E-04    2.16     206.0  T
     SCC iter.                  ...        0 min,  0.001 sec
     gradient                   ...        0 min,  0.000 sec
 * total energy  :   -16.1035054 Eh     change       -0.7859232E-04 Eh
   gradient norm :     0.0041710 Eh/α   predicted    -0.6552737E-04 ( -16.62%)
   displ. norm   :     0.0715329 α      lambda       -0.6512849E-04
   maximum displ.:     0.0506347 α      in ANC's #3, #2, #8, ...

........................................................................
.............................. CYCLE   11 ..............................
........................................................................
   1    -16.2283691 -0.162284E+02  0.478E-02    2.15       0.0  T
   2    -16.2283734 -0.426711E-05  0.355E-02    2.18       1.0  T
   3    -16.2283805 -0.709976E-05  0.183E-02    2.16       1.7  T
   4    -16.2283812 -0.730977E-06  0.391E-03    2.17       8.1  T
   5    -16.2283812 -0.166657E-08  0.107E-03    2.17      29.5  T
   6    -16.2283812 -0.270001E-08  0.280E-04    2.17     113.1  T
   7    -16.2283812 -0.103292E-09  0.154E-04    2.17     205.5  T
     SCC iter.                  ...        0 min,  0.001 sec
     gradient                   ...        0 min,  0.000 sec
 * total energy  :   -16.1035511 Eh     change       -0.4570196E-04 Eh
   gradient norm :     0.0028501 Eh/α   predicted    -0.3273133E-04 ( -28.38%)
   displ. norm   :     0.0908872 α      lambda       -0.6238538E-04
   maximum displ.:     0.0568760 α      in ANC's #3, #2, #8, ...

........................................................................
.............................. CYCLE   12 ..............................
........................................................................
   1    -16.2283848 -0.162284E+02  0.443E-02    2.16       0.0  T
   2    -16.2283850 -0.211465E-06  0.264E-02    2.17       1.2  T
   3    -16.2283841  0.874413E-06  0.948E-03    2.16       3.3  T
   4    -16.2283852 -0.102930E-05  0.163E-03    2.17      19.4  T
   5    -16.2283852 -0.673779E-08  0.104E-03    2.17      30.5  T
   6    -16.2283852 -0.157769E-08  0.401E-04    2.17      78.9  T
   7    -16.2283852 -0.461586E-09  0.255E-04    2.17     123.8  T
     SCC iter.                  ...        0 min,  0.001 sec
     gradient                   ...        0 min,  0.000 sec
 * total energy  :   -16.1035877 Eh     change       -0.3658855E-04 Eh
   gradient norm :     0.0017529 Eh/α   predicted    -0.3145215E-04 ( -14.04%)
   displ. norm   :     0.0356001 α      lambda       -0.1451151E-04
   maximum displ.:     0.0214819 α      in ANC's #11, #2, #3, ...

........................................................................
.............................. CYCLE   13 ..............................
........................................................................
   1    -16.2286953 -0.162287E+02  0.734E-02    2.21       0.0  T
   2    -16.2287175 -0.222048E-04  0.580E-02    2.14       1.0  T
   3    -16.2287524 -0.349485E-04  0.160E-02    2.17       2.0  T
   4    -16.2287528 -0.386090E-06  0.958E-03    2.16       3.3  T
   5    -16.2287530 -0.153500E-06  0.444E-03    2.17       7.1  T
   6    -16.2287530 -0.576499E-07  0.284E-03    2.17      11.1  T
   7    -16.2287531 -0.321226E-07  0.151E-03    2.17      20.9  T
   8    -16.2287531 -0.106684E-07  0.257E-04    2.17     123.0  T
   9    -16.2287531 -0.525304E-10  0.831E-05    2.17     380.5  T
     SCC iter.                  ...        0 min,  0.001 sec
     gradient                   ...        0 min,  0.000 sec
 * total energy  :   -16.1035897 Eh     change       -0.2056590E-05 Eh
   gradient norm :     0.0023254 Eh/α   predicted    -0.7259170E-05 ( 252.97%)
   displ. norm   :     0.0123241 α      lambda       -0.7555444E-05
   maximum displ.:     0.0064397 α      in ANC's #3, #2, #11, ...

........................................................................
.............................. CYCLE   14 ..............................
........................................................................
   1    -16.2284829 -0.162285E+02  0.291E-02    2.15       0.0  T
   2    -16.2284862 -0.331456E-05  0.221E-02    2.18       1.4  T
   3    -16.2284916 -0.540410E-05  0.575E-03    2.17       5.5  T
   4    -16.2284917 -0.769464E-07  0.344E-03    2.17       9.2  T
   5    -16.2284917 -0.161433E-07  0.150E-03    2.17      21.1  T
   6    -16.2284917 -0.588109E-08  0.100E-03    2.17      31.5  T
   7    -16.2284917 -0.387840E-08  0.579E-04    2.17      54.7  T
   8    -16.2284917 -0.159659E-08  0.118E-04    2.17     268.2  T
     SCC iter.                  ...        0 min,  0.001 sec
     gradient                   ...        0 min,  0.000 sec
 * total energy  :   -16.1035945 Eh     change       -0.4787768E-05 Eh
   gradient norm :     0.0006437 Eh/α   predicted    -0.3778332E-05 ( -21.08%)
   displ. norm   :     0.0095060 α      lambda       -0.1492018E-05
   maximum displ.:     0.0061756 α      in ANC's #11, #8, #14, ...

........................................................................
.............................. CYCLE   15 ..............................
........................................................................
   1    -16.2284221 -0.162284E+02  0.209E-02    2.15       0.0  T
   2    -16.2284238 -0.174677E-05  0.175E-02    2.17       1.8  T
   3    -16.2284271 -0.323748E-05  0.474E-03    2.17       6.7  T
   4    -16.2284271 -0.160122E-07  0.302E-03    2.17      10.5  T
   5    -16.2284271 -0.162984E-07  0.145E-03    2.17      21.8  T
   6    -16.2284271 -0.648604E-08  0.903E-04    2.17      35.0  T
   7    -16.2284271 -0.333837E-08  0.468E-04    2.17      67.6  T
     SCC iter.                  ...        0 min,  0.001 sec
     gradient                   ...        0 min,  0.000 sec
 * total energy  :   -16.1035951 Eh     change       -0.6436364E-06 Eh
   gradient norm :     0.0003633 Eh/α   predicted    -0.7477741E-06 (  16.18%)
   displ. norm   :     0.0043304 α      lambda       -0.3430384E-06
   maximum displ.:     0.0027604 α      in ANC's #3, #11, #2, ...

   *** GEOMETRY OPTIMIZATION CONVERGED AFTER 15 ITERATIONS ***

------------------------------------------------------------------------
 total energy gain   :        -0.0532795 Eh      -33.4334 kcal/mol
 total RMSD          :         0.4811453 a0        0.2546 Å
 total power (kW/mol):        -9.3256870 (step)-3398.9786 (real)
------------------------------------------------------------------------

 ANCopt (total)                0 d,  0 h,  0 min,  0.041 sec
 optimizer setup                ...        0 min,  0.000 sec (  0.262%)
 model hessian                  ...        0 min,  0.001 sec (  3.428%)
 ANC generation                 ...        0 min,  0.000 sec (  0.443%)
 coordinate transformation      ...        0 min,  0.000 sec (  0.160%)
 single point calculation       ...        0 min,  0.038 sec ( 91.195%)
 optimization log               ...        0 min,  0.001 sec (  1.650%)
 hessian update                 ...        0 min,  0.000 sec (  0.249%)
 rational function              ...        0 min,  0.001 sec (  1.406%)

================
 final structure:
================
10
 xtb: 6.5.1 (579679a)
C           -0.70671603031154        0.17267164822780        0.33219115574017
C            0.66068525855347       -0.09261819365926       -0.01847312993681
Cl           0.94044829657506       -0.54579781689368       -2.01440795439239
H           -0.76068901059875        0.40793400165345        1.43069725489609
H           -1.36010803667227       -0.68585207034526        0.17885420355447
H           -1.11644833678395        1.04308022374492       -0.17958008666377
H            1.08951768177163       -0.99692813677650        0.39380533890247
H            1.33589179731161        0.75203011422680        0.03127942341774
O           -0.97746677522058        0.72911145019492        2.83660086765104
H           -1.92483484462357        0.89231877962736        2.87194292682741
 
 Bond Distances (Angstroems)
 ---------------------------
C1-C2=1.4364         C1-H4=1.1247         C1-H5=1.0897         C1-H6=1.0897         C2-C1=1.4364         C2-Cl3=2.0658        
C2-H7=1.0824         C2-H8=1.0825         Cl3-C2=2.0658        H4-C1=1.1247         H5-C1=1.0897         H6-C1=1.0897         
H7-C2=1.0824         H8-C2=1.0825         O9-H10=0.9620        H10-O9=0.9620        
 C  H  Rav=1.0938 sigma=0.0158  Rmin=1.0824  Rmax=1.1247     5
 C  C  Rav=1.4364 sigma=0.0000  Rmin=1.4364  Rmax=1.4364     1
 O  H  Rav=0.9620 sigma=0.0000  Rmin=0.9620  Rmax=0.9620     1
 Cl C  Rav=2.0658 sigma=0.0000  Rmin=2.0658  Rmax=2.0658     1
 
 selected bond angles (degree)
 --------------------
H4-C1-C2=108.83                H5-C1-C2=113.01                H5-C1-H4=105.87                H6-C1-C2=113.01                
H6-C1-H4=105.88                H6-C1-H5=109.74                Cl3-C2-C1=113.91               H7-C2-C1=116.01                
H7-C2-Cl3= 97.53               H8-C2-C1=116.01                H8-C2-Cl3= 97.53               H8-C2-H7=112.78                
 
 selected dihedral angles (degree)
 ---------------------------------
Cl3-C2-C1-H4=180.00           Cl3-C2-C1-H5= 62.69           Cl3-C2-C1-H6=297.31           H7-C2-C1-H4= 67.92            
H7-C2-C1-H5=310.61            H7-C2-C1-H6=185.23            H8-C2-C1-H4=292.08            H8-C2-C1-H5=174.77            
H8-C2-C1-H6= 49.39            
 
 CMA Distance (Angstroems)
 ---------------------------
R(CMA):  4.2728
           -------------------------------------------------
          |                Final Singlepoint                |
           -------------------------------------------------

          ...................................................
          :                      SETUP                      :
          :.................................................:
          :  # basis functions                  28          :
          :  # atomic orbitals                  27          :
          :  # shells                           15          :
          :  # electrons                        28          :
          :  max. iterations                   250          :
          :  Hamiltonian                  GFN2-xTB          :
          :  restarted?                      false          :
          :  GBSA solvation                  false          :
          :  PC potential                    false          :
          :  electronic temp.          300.0000000     K    :
          :  accuracy                    1.0000000          :
          :  -> integral cutoff          0.2500000E+02      :
          :  -> integral neglect         0.1000000E-07      :
          :  -> SCF convergence          0.1000000E-05 Eh   :
          :  -> wf. convergence          0.1000000E-03 e    :
          :  Broyden damping             0.4000000          :
          ...................................................

 iter      E             dE          RMSdq      gap      omega  full diag
   1    -16.2284271 -0.162284E+02  0.678E-05    2.17       0.0  T
   2    -16.2284271 -0.182609E-11  0.468E-05    2.17     676.1  T
   3    -16.2284271 -0.635936E-12  0.218E-05    2.17    1453.0  T

   *** convergence criteria satisfied after 3 iterations ***

         #    Occupation            Energy/Eh            Energy/eV
      -------------------------------------------------------------
         1        2.0000           -0.8804259             -23.9576
       ...           ...                  ...                  ...
         8        2.0000           -0.2947426              -8.0204
         9        2.0000           -0.2828008              -7.6954
        10        2.0000           -0.2605422              -7.0897
        11        2.0000           -0.2509145              -6.8277
        12        2.0000           -0.2493110              -6.7841
        13        2.0000           -0.1578765              -4.2960
        14        2.0000           -0.1519543              -4.1349 (HOMO)
        15                         -0.0723388              -1.9684 (LUMO)
        16                          0.2138591               5.8194
        17                          0.2152112               5.8562
        18                          0.2156200               5.8673
        19                          0.2157029               5.8696
       ...                                ...                  ...
        27                          0.5135640              13.9748
      -------------------------------------------------------------
                  HL-Gap            0.0796155 Eh            2.1664 eV
             Fermi-level           -0.1121466 Eh           -3.0517 eV

 SCC (total)                   0 d,  0 h,  0 min,  0.001 sec
 SCC setup                      ...        0 min,  0.000 sec (  3.934%)
 Dispersion                     ...        0 min,  0.000 sec (  1.471%)
 classical contributions        ...        0 min,  0.000 sec (  0.460%)
 integral evaluation            ...        0 min,  0.000 sec ( 14.945%)
 iterations                     ...        0 min,  0.001 sec ( 47.114%)
 molecular gradient             ...        0 min,  0.000 sec ( 26.213%)
 printout                       ...        0 min,  0.000 sec (  4.706%)

         :::::::::::::::::::::::::::::::::::::::::::::::::::::
         ::                     SUMMARY                     ::
         :::::::::::::::::::::::::::::::::::::::::::::::::::::
         :: total energy             -16.103595149581 Eh    ::
         :: gradient norm              0.000361734915 Eh/a0 ::
         :: HOMO-LUMO gap              2.166447068076 eV    ::
         ::.................................................::
         :: SCC energy               -16.228427113001 Eh    ::
         :: -> isotropic ES            0.191880104275 Eh    ::
         :: -> anisotropic ES         -0.002906247169 Eh    ::
         :: -> anisotropic XC          0.002755628464 Eh    ::
         :: -> dispersion             -0.004559311401 Eh    ::
         :: repulsion energy           0.124393551588 Eh    ::
         :: add. restraining           0.000440802331 Eh    ::
         :: total charge              -1.000000000000 e     ::
         :::::::::::::::::::::::::::::::::::::::::::::::::::::

========================================================================
 RELAXED SCAN
------------------------------------------------------------------------
 output written to xtbscan.log
 scaning constraint 1
... step 1 ...
 current energy:         -16.10247045
    bias energy:           0.00052431
unbiased energy:         -16.10299475
... step 2 ...
 current energy:         -16.11879782
    bias energy:           0.00024309
unbiased energy:         -16.11904091
... step 3 ...
 current energy:         -16.13024877
    bias energy:           0.00005007
unbiased energy:         -16.13029884
... step 4 ...
 current energy:         -16.13443539
    bias energy:           0.00000384
unbiased energy:         -16.13443922
... step 5 ...
 current energy:         -16.13536914
    bias energy:           0.00000008
unbiased energy:         -16.13536922
... step 6 ...
 current energy:         -16.13559529
    bias energy:           0.00000004
unbiased energy:         -16.13559534
... step 7 ...
 current energy:         -16.13583900
    bias energy:           0.00000008
unbiased energy:         -16.13583909
... step 8 ...
 current energy:         -16.14649917
    bias energy:           0.00000483
unbiased energy:         -16.14650400
... step 9 ...
 current energy:         -16.14802139
    bias energy:           0.00000103
unbiased energy:         -16.14802242
... step 10 ...
 current energy:         -16.14868691
    bias energy:           0.00000021
unbiased energy:         -16.14868711
           -------------------------------------------------
          |                Property Printout                |
           -------------------------------------------------

    * Orbital Energies and Occupations

         #    Occupation            Energy/Eh            Energy/eV
      -------------------------------------------------------------
         1        2.0000           -0.7900070             -21.4972
         2        2.0000           -0.4963935             -13.5076
         3        2.0000           -0.4886489             -13.2968
         4        2.0000           -0.4277364             -11.6393
         5        2.0000           -0.3858025             -10.4982
         6        2.0000           -0.3754749             -10.2172
         7        2.0000           -0.3475612              -9.4576
         8        2.0000           -0.3338033              -9.0833
         9        2.0000           -0.3084809              -8.3942
        10        2.0000           -0.2915748              -7.9342
        11        2.0000           -0.2623583              -7.1391
        12        2.0000           -0.1923594              -5.2344
        13        2.0000           -0.1900427              -5.1713
        14        2.0000           -0.1896945              -5.1618 (HOMO)
        15                         -0.0850172              -2.3134 (LUMO)
        16                          0.2584545               7.0329
        17                          0.2764478               7.5225
        18                          0.2772498               7.5444
        19                          0.3242498               8.8233
        20                          0.3320590               9.0358
        21                          0.3322629               9.0413
        22                          0.3339126               9.0862
        23                          0.3346092               9.1052
        24                          0.3461447               9.4191
        25                          0.4529606              12.3257
       ...                                ...                  ...
        27                          0.7253271              19.7372
      -------------------------------------------------------------
                  HL-Gap            0.1046773 Eh            2.8484 eV
             Fermi-level           -0.1373558 Eh           -3.7376 eV

     #   Z          covCN         q      C6AA      α(0)
     1   6 C        2.832    -0.089    30.231     9.010
     2   6 C        2.833    -0.054    29.335     8.875
     3  17 Cl       0.016    -0.957   125.264    17.033
     4   1 H        0.819     0.323     0.655     1.270
     5   1 H        0.926     0.016     2.802     2.618
     6   1 H        0.926     0.015     2.808     2.620
     7   1 H        0.926     0.058     2.224     2.332
     8   1 H        0.926     0.056     2.248     2.345
     9   8 O        1.608    -0.617    25.607     6.830
    10   1 H        0.805     0.251     0.888     1.480

 Mol. C6AA /au·bohr⁶  :       1238.177807
 Mol. C8AA /au·bohr⁸  :      32956.293053
 Mol. α(0) /au        :         54.413698


Wiberg/Mayer (AO) data.
largest (>0.10) Wiberg bond orders for each atom

 ---------------------------------------------------------------------------
     #   Z sym  total        # sym  WBO       # sym  WBO       # sym  WBO
 ---------------------------------------------------------------------------
     1   6 C    3.992 --     2 C    2.020     6 H    0.978     5 H    0.978
     2   6 C    3.985 --     1 C    2.020     8 H    0.975     7 H    0.975
     3  17 Cl   0.083
     4   1 H    0.896 --     9 O    0.848
     5   1 H    1.000 --     1 C    0.978
     6   1 H    1.000 --     1 C    0.978
     7   1 H    0.997 --     2 C    0.975
     8   1 H    0.997 --     2 C    0.975
     9   8 O    1.803 --    10 H    0.925     4 H    0.848
    10   1 H    0.937 --     9 O    0.925
 ---------------------------------------------------------------------------

Topologies differ in total number of bonds
Writing topology from bond orders to xtbtopo.mol

molecular dipole:
                 x           y           z       tot (Debye)
 q only:       -4.026       0.058      -2.686
   full:       -3.874      -0.011      -2.919      12.329
molecular quadrupole (traceless):
                xx          xy          yy          xz          yz          zz
 q only:      -14.815       2.317      14.833     -11.133      -1.490      -0.019
  q+dip:      -11.608       1.883      16.153     -11.972      -2.618      -4.545
   full:      -11.779       1.954      15.526     -11.293      -2.407      -3.748

           -------------------------------------------------
          |                Geometry Summary                 |
           -------------------------------------------------

      molecular mass/u    :       81.5214588
   center of mass at/Å    :        0.7612349       0.0692604       0.8886166
  moments of inertia/u·Å² :        0.1015112E+03   0.2271723E+03   0.3219822E+03
rotational constants/cm⁻¹ :        0.1660668E+00   0.7420638E-01   0.5235579E-01

 * 7 selected distances

     #   Z          #   Z                                           value/Å
     1   6 C        2   6 C                                       1.3179819 (max)
     1   6 C        5   1 H                                       1.0800520
     1   6 C        6   1 H                                       1.0800996
     2   6 C        7   1 H                                       1.0757168
     2   6 C        8   1 H                                       1.0758274
     4   1 H        9   8 O                                       0.9824367
     9   8 O       10   1 H                                       0.9604637 (min)

 * 3 distinct bonds (by element types)

   Z      Z             #   av. dist./Å        max./Å        min./Å
   1 H    6 C           4     1.0779239     1.0800996     1.0757168
   6 C    6 C           1     1.3179819     1.3179819     1.3179819
   1 H    8 O           2     0.9714502     0.9824367     0.9604637


optimized geometry written to: xtbopt.xyz


           -------------------------------------------------
          | TOTAL ENERGY              -16.103595149581 Eh   |
          | GRADIENT NORM               0.000361734915 Eh/α |
          | HOMO-LUMO GAP               2.848415038018 eV   |
           -------------------------------------------------

------------------------------------------------------------------------
 * finished run on 2022/09/05 at 11:04:15.190     
------------------------------------------------------------------------
 total:
 * wall-time:     0 d,  0 h,  0 min,  0.655 sec
 *  cpu-time:     0 d,  0 h,  0 min, 10.310 sec
 * ratio c/w:    15.738 speedup
 SCF:
 * wall-time:     0 d,  0 h,  0 min,  0.005 sec
 *  cpu-time:     0 d,  0 h,  0 min,  0.081 sec
 * ratio c/w:    15.991 speedup
 ANC optimizer:
 * wall-time:     0 d,  0 h,  0 min,  0.596 sec
 *  cpu-time:     0 d,  0 h,  0 min,  9.526 sec
 * ratio c/w:    15.997 speedup

normal termination of xtb
