10
energy: -16.102994754933 xtb: 6.4.1 (afa7bdf)
C        -0.70637444253828    0.17262756447337    0.33274278065613
C         0.66342005860686   -0.09380325510269   -0.02190077602646
Cl        0.93285628437110   -0.54317433649946   -2.00868497115447
H        -0.75988380978502    0.40510586434032    1.41897239722594
H        -1.35842320604153   -0.68636227378889    0.17450065434711
H        -1.11501376182110    1.04130170850485   -0.18353797847726
H         1.09141055715926   -0.99646708481526    0.39572988005679
H         1.33775113016756    0.75153233704054    0.03379212251904
O        -0.97892364428768    0.73164380712797    2.84233623132852
H        -1.92653916582998    0.89354566871770    2.87895965952515
