10
 energy: -15.895103267087 gnorm: 1.425209469630 xtb: 6.5.1 (579679a)
C           -1.43529723095900        0.21167582105844       -0.04222872594119
C           -0.33128403819698       -0.08126608587178       -0.70032147655524
Cl           2.31525037303333       -0.14759720277502        0.91322828297912
H            0.81516510554877        0.32784781645859        2.27722028344212
H           -2.04215757420515       -0.54803859585484        0.42798161262763
H           -1.79426046925811        1.22600318007407        0.05490431038685
H            0.03937442399457       -1.08816789031013       -0.77337263425904
H            0.28613583975833        0.67841774591172       -1.14599445703289
O           -0.00384402660348        0.55042807703454        2.77217500090548
H           -0.66880240310980        0.54664713426997        2.07931780344094
10
 energy: -16.140630523166 gnorm: 0.176457398089 xtb: 6.5.1 (579679a)
C           -1.50502207210077        0.20262546498602       -0.13608443520351
C           -0.33790464454801       -0.08057438946699       -0.70270670752432
Cl           2.31538518862372       -0.14814908758598        0.91149435245780
H            0.88368476496182        0.33619908605027        2.36770090882080
H           -2.04603058407325       -0.54818255069886        0.42793993581580
H           -1.79788659697098        1.22793233801170        0.05461465837805
H            0.03736797216542       -1.08727248907676       -0.77267288257169
H            0.28426084248280        0.67861992154379       -1.14508791089615
O            0.00136627276712        0.55115908490742        2.78251031507422
H           -0.65494114330540        0.54359262132494        2.07520176564279
10
 energy: -16.146355584169 gnorm: 0.015495339505 xtb: 6.5.1 (579679a)
C           -1.50206379640266        0.20137674918482       -0.13869036624606
C           -0.34888808336966       -0.08150149490573       -0.71528301111417
Cl           2.31569457915148       -0.14941785659671        0.90948040813872
H            0.89179279903019        0.34516195924967        2.40671454047448
H           -2.05535784335791       -0.54772153969837        0.40965369996576
H           -1.80736628084587        1.22315292627126        0.03802129526451
H            0.03115470630276       -1.08636904512063       -0.77611720252660
H            0.27834202760783        0.67878133238564       -1.14763392073837
O            0.00638089313641        0.55324223255569        2.80029158180158
H           -0.62940900125012        0.53924473666994        2.07647297497395
10
 energy: -16.147400449899 gnorm: 0.022755209769 xtb: 6.5.1 (579679a)
C           -1.49549846484004        0.20444946202652       -0.12829869398171
C           -0.35468613520642       -0.08217128199149       -0.72243922541916
Cl           2.31694017816967       -0.14581682386915        0.91142600066450
H            0.89279083115928        0.34148939053338        2.42865014822306
H           -2.06632036160609       -0.54896819409065        0.39250515394679
H           -1.82088978942619        1.22117321298837        0.01944285786027
H            0.02744598557981       -1.08661836431903       -0.77837457621692
H            0.27390583090814        0.67767382241948       -1.15218088903727
O            0.01300969768144        0.55813687577793        2.81442336298923
H           -0.60641777241719        0.53660190052025        2.07775586096503
10
 energy: -16.148189430644 gnorm: 0.016842460370 xtb: 6.5.1 (579679a)
C           -1.48665733101160        0.19983589496326       -0.10596902465872
C           -0.36178254487103       -0.08242826693741       -0.73157014762403
Cl           2.31724966997067       -0.15872539524361        0.92320910121688
H            0.90149638585717        0.38207020446906        2.44948380091457
H           -2.09699669540636       -0.55436058167895        0.35743390841712
H           -1.83953739665184        1.21897551003658       -0.00901742105105
H            0.01914330053197       -1.08488231648817       -0.79138203407083
H            0.27003327717157        0.68082172575175       -1.15394264905192
O            0.02304671136289        0.54929949347958        2.84252248428836
H           -0.56571537695106        0.52534373164356        2.08214198161344
10
 energy: -16.148121715122 gnorm: 0.010565322966 xtb: 6.5.1 (579679a)
C           -1.48195472007284        0.21769322685881       -0.10169129782221
C           -0.36331434315609       -0.08321515569026       -0.73217769515789
Cl           2.32374872102423       -0.12618031403001        0.92428169972632
H            0.89139371213615        0.30731707773329        2.46949364361195
H           -2.09586197723214       -0.55449916952828        0.35207024858472
H           -1.86216359673711        1.22121579239876       -0.03030076770208
H            0.01985144859774       -1.08932970261323       -0.78090715002860
H            0.26220974075008        0.67268577593491       -1.16764257403934
O            0.03295038061001        0.57838184590144        2.84800148444660
H           -0.54657936591780        0.53188062303030        2.08178240837440
10
 energy: -16.148373420144 gnorm: 0.004391601106 xtb: 6.5.1 (579679a)
C           -1.48660336213296        0.20772475694167       -0.10557786259546
C           -0.36160121075259       -0.08235026822020       -0.72934590993642
Cl           2.32125084031249       -0.14350541664505        0.92773594214198
H            0.89731158977432        0.34740940668697        2.45276236399665
H           -2.09762048845380       -0.55429022110505        0.35485632437711
H           -1.85070859124022        1.22001077332755       -0.01909044574512
H            0.01921310308082       -1.08686624351767       -0.78644419714000
H            0.26638755386689        0.67740986975970       -1.15993558543642
O            0.02875272559900        0.56206748458269        2.84488427780191
H           -0.55610216005163        0.52833985818510        2.08306509252961
10
 energy: -16.148402993721 gnorm: 0.002582925341 xtb: 6.5.1 (579679a)
C           -1.48870890692547        0.20645630962355       -0.10727912834778
C           -0.36152593857930       -0.08198428362812       -0.72796421382039
Cl           2.32211876475941       -0.14505611233970        0.93211845159828
H            0.89939245239912        0.35145638118005        2.44701638578970
H           -2.09950192176946       -0.55433753439894        0.35408572552848
H           -1.85079232071187        1.21994561595860       -0.01892005195956
H            0.01875853694488       -1.08646909831008       -0.78671080659539
H            0.26654621819208        0.67819662273399       -1.15855284441672
O            0.02979306529370        0.56015156477131        2.84506531333472
H           -0.55579994960077        0.52759053440504        2.08405116888251
10
 energy: -16.148451221230 gnorm: 0.002873263199 xtb: 6.5.1 (579679a)
C           -1.49376376169043        0.20532064354173       -0.11172959150067
C           -0.36250630882723       -0.08121516683182       -0.72545749388117
Cl           2.32595571238854       -0.14480018220339        0.94562867821794
H            0.90358146908291        0.35259448518447        2.43397133719279
H           -2.10515220049875       -0.55437491663073        0.35031002835697
H           -1.85475537142953        1.21981559635415       -0.02214833961294
H            0.01738375126577       -1.08578417655838       -0.78555862830268
H            0.26567476855664        0.67935857270688       -1.15605639888376
O            0.03586261325454        0.55865084167739        2.84636240349534
H           -0.55200067210018        0.52638430275545        2.08758800491204
10
 energy: -16.148478978747 gnorm: 0.003649646625 xtb: 6.5.1 (579679a)
C           -1.49756424680829        0.20555625316638       -0.11513430889151
C           -0.36421333549795       -0.08078228331826       -0.72451681377633
Cl           2.33027761785515       -0.14248180549134        0.95739268711916
H            0.90655477924227        0.34854274386074        2.42452364885652
H           -2.10974431112084       -0.55419979974334        0.34657649197831
H           -1.85966417475409        1.21964438173801       -0.02632321130024
H            0.01637701674289       -1.08529826838495       -0.78319936877502
H            0.26446376140878        0.67986325952450       -1.15415734866273
O            0.04284424705276        0.55902585996897        2.84661839186057
H           -0.54905135411845        0.52607965867507        2.09112983158515
10
 energy: -16.148508115321 gnorm: 0.003361293904 xtb: 6.5.1 (579679a)
C           -1.50198635590902        0.20623390335033       -0.11871243518612
C           -0.36706221349155       -0.08037243322655       -0.72427080520953
Cl           2.33723641884848       -0.13947950191017        0.97226226994256
H            0.91061310161875        0.34277577493024        2.41339048193529
H           -2.11581317733283       -0.55389914492219        0.34119051330302
H           -1.86651988409370        1.21928633053884       -0.03227229513895
H            0.01516038791847       -1.08457550523107       -0.77939949112722
H            0.26282116423441        0.68048449942051       -1.15119359829300
O            0.05287912771401        0.55937542095565        2.84559795716162
H           -0.54704856950489        0.52612065609025        2.09631740260624
10
 energy: -16.148530880921 gnorm: 0.002112566491 xtb: 6.5.1 (579679a)
C           -1.50535802709591        0.20678820096546       -0.12091407877118
C           -0.36964429326257       -0.08007330359787       -0.72435638707688
Cl           2.34515417764531       -0.13806286592321        0.98366537080945
H            0.91431504914571        0.33942845497695        2.40469755767167
H           -2.12115480977426       -0.55368170654858        0.33622263349561
H           -1.87227776714221        1.21888400413843       -0.03732812773902
H            0.01412323844341       -1.08385639385126       -0.77584144073822
H            0.26151913641597        0.68120867257207       -1.14799537744624
O            0.06145316112480        0.55884150325709        2.84339233549654
H           -0.54784986549818        0.52647343400679        2.10136751429219
10
 energy: -16.148548494795 gnorm: 0.001409435072 xtb: 6.5.1 (579679a)
C           -1.50778440639777        0.20708796616557       -0.12196679670447
C           -0.37139827922438       -0.07978922015864       -0.72399913759007
Cl           2.35421744993685       -0.13854713447251        0.99038110432453
H            0.91709781690906        0.33873309789315        2.39864204944428
H           -2.12546726849100       -0.55363070398811        0.33211004433981
H           -1.87656210820386        1.21857149804717       -0.04109274937166
H            0.01325620815791       -1.08323470212865       -0.77288550384753
H            0.26064993021271        0.68204166542958       -1.14490757139979
O            0.06728800436972        0.55770119407792        2.84070198497596
H           -0.55101734726719        0.52701633913044        2.10592657582288
10
 energy: -16.148564127725 gnorm: 0.002197731669 xtb: 6.5.1 (579679a)
C           -1.51066268641009        0.20717096617600       -0.12282828703994
C           -0.37263990898508       -0.07925114454618       -0.72219906190254
Cl           2.36845395987864       -0.14116544938720        0.99430743076073
H            0.91942017883595        0.34001836067467        2.39260918220736
H           -2.13044430865805       -0.55381442721096        0.32744568984895
H           -1.88109502108498        1.21838554095476       -0.04501259777744
H            0.01222425329546       -1.08251054261549       -0.76948489201549
H            0.25994461187717        0.68328728877709       -1.14096872966540
O            0.07158562396882        0.55612997759366        2.83767797393478
H           -0.55650670271583        0.52769942957959        2.11136329164294
10
 energy: -16.148573569013 gnorm: 0.001617356545 xtb: 6.5.1 (579679a)
C           -1.51206311124945        0.20712390903232       -0.12341292725160
C           -0.37277910737697       -0.07887936499595       -0.72067914158539
Cl           2.37523745519558       -0.14271190248086        0.99403584337524
H            0.91943043672609        0.34067664027221        2.39063337639505
H           -2.13234024639616       -0.55399818027153        0.32581681541777
H           -1.88279070493473        1.21845288898766       -0.04642082648382
H            0.01190938477314       -1.08221432961527       -0.76810556210888
H            0.25985871752210        0.68377626398437       -1.13942589560993
O            0.07181588109443        0.55597305568546        2.83746372977816
H           -0.55799870535203        0.52775101939755        2.11300458806736
10
 energy: -16.148585326538 gnorm: 0.001311928038 xtb: 6.5.1 (579679a)
C           -1.51812264743887        0.20729463087095       -0.12633662701377
C           -0.37401851889933       -0.07735877177499       -0.71504728813687
Cl           2.40113534700822       -0.14755654444022        0.99394195054580
H            0.91893800395313        0.34093985503930        2.38242022013841
H           -2.14008862796317       -0.55455783129184        0.31929553185346
H           -1.89031674057131        1.21867819660423       -0.05256575250292
H            0.01109358521120       -1.08077249434322       -0.76154298582066
H            0.25967403550458        0.68541100171416       -1.13280281847116
O            0.07375999403223        0.55628690278974        2.83714378456093
H           -0.56177443083479        0.52758505482794        2.11840398484077
10
 energy: -16.148588902431 gnorm: 0.000554004525 xtb: 6.5.1 (579679a)
C           -1.51728709165399        0.20744555288769       -0.12590455938511
C           -0.37406578440985       -0.07753891232915       -0.71596235038510
Cl           2.39610446353961       -0.14638434009137        0.99322166117330
H            0.91841590389616        0.34002599112053        2.38419159615656
H           -2.13878033802247       -0.55437225402013        0.32057072132910
H           -1.88929270767734        1.21862734103331       -0.05159177320703
H            0.01173045489010       -1.08073109431938       -0.76172653934549
H            0.26007615470785        0.68495726339714       -1.13322570403452
O            0.07333809862233        0.55668804274562        2.83718034650355
H           -0.55995915389050        0.52723240957178        2.11615660118871
10
 energy: -16.148592246398 gnorm: 0.000530953891 xtb: 6.5.1 (579679a)
C           -1.51804474728244        0.20762807415647       -0.12597958422878
C           -0.37437027511075       -0.07730919928297       -0.71528787516296
Cl           2.39468936631273       -0.14598877211906        0.99327388923846
H            0.91855059889112        0.33927258358265        2.38334401824453
H           -2.13945328600817       -0.55421929832714        0.32053251843258
H           -1.89004407512847        1.21860994420579       -0.05183666391824
H            0.01262924678518       -1.08009858813187       -0.75968564918851
H            0.26083510673455        0.68490771073554       -1.13121317635696
O            0.07387045705053        0.55675827807246        2.83603961651366
H           -0.55838239224238        0.52638926710414        2.11372290642021
10
 energy: -16.148599390370 gnorm: 0.001268831310 xtb: 6.5.1 (579679a)
C           -1.52035141166064        0.20814227708890       -0.12587998096277
C           -0.37473826505226       -0.07638502603648       -0.71159335708717
Cl           2.39535883711221       -0.14632820234794        0.99163778026847
H            0.91901462237682        0.33801921314630        2.38080883543764
H           -2.14246766766301       -0.55400851258031        0.31926824550278
H           -1.89321055019614        1.21869082064480       -0.05345904839921
H            0.01478783269967       -1.07833058505017       -0.75293875439688
H            0.26279558256951        0.68535586151946       -1.12449164054914
O            0.07458110342457        0.55671877862033        2.83204249837202
H           -0.55549008360886        0.52407537499115        2.10751542180823
10
 energy: -16.148614783853 gnorm: 0.002376273464 xtb: 6.5.1 (579679a)
C           -1.52753611393514        0.20930992021110       -0.12627160086111
C           -0.37524009694217       -0.07368483685017       -0.69992144691928
Cl           2.40258657233734       -0.14843666561808        0.98927972446390
H            0.92196721833100        0.33562459579103        2.37083467292954
H           -2.15228698661697       -0.55353814311221        0.31414715530629
H           -1.90313748254289        1.21890972417953       -0.05903846966973
H            0.01952514494950       -1.07390354205361       -0.73418854322475
H            0.26727898699317        0.68760517685010       -1.10558983400838
O            0.07755085442859        0.55575429177609        2.82023022052183
H           -0.55042809700066        0.51830947882230        2.09342812145568
10
 energy: -16.148633900280 gnorm: 0.002906696025 xtb: 6.5.1 (579679a)
C           -1.53626465450506        0.21067846404548       -0.12633751048753
C           -0.37521383568597       -0.07009344728456       -0.68359703598856
Cl           2.41448909754577       -0.15232461245436        0.98483749076368
H            0.92605099058422        0.33377664603367        2.35835260267764
H           -2.16544827917464       -0.55306558230670        0.30661256763885
H           -1.91630704572516        1.21915651774012       -0.06681193686446
H            0.02489618893383       -1.06849851605525       -0.70957475631651
H            0.27251707547078        0.69129260811172       -1.08070892637259
O            0.08052834404493        0.55408611961112        2.80450930255090
H           -0.54496788148706        0.51094180255491        2.07562820239259
10
 energy: -16.148643683330 gnorm: 0.001459875254 xtb: 6.5.1 (579679a)
C           -1.53558844680658        0.21094067159557       -0.12379382765395
C           -0.37188217210226       -0.06895004563369       -0.67499783767353
Cl           2.41750050678651       -0.15617382364031        0.98144507349669
H            0.92903442963604        0.34180582414565        2.35806276463550
H           -2.16779733096283       -0.55346582841023        0.30324111835481
H           -1.91864150967736        1.21909451175646       -0.06976480391194
H            0.02363156398140       -1.06908778191936       -0.70623403920851
H            0.27140132445174        0.69341178987978       -1.07830679988691
O            0.07714122013567        0.54664798207952        2.80252145420147
H           -0.54451958544070        0.51172670014275        2.07073689764039
10
 energy: -16.148647820007 gnorm: 0.001870468930 xtb: 6.5.1 (579679a)
C           -1.53738814876611        0.21078181293602       -0.12511101453101
C           -0.37113520292592       -0.06822449486397       -0.67072798296681
Cl           2.42383120990191       -0.15426533415774        0.97689332887771
H            0.92774705126004        0.32775403339642        2.35682396884026
H           -2.16948691459234       -0.55332929809908        0.30217446548420
H           -1.92046602559975        1.21943530209650       -0.07045696070114
H            0.02441848693280       -1.06838174278738       -0.69635264686676
H            0.27226726258767        0.69688127281204       -1.06917150775232
O            0.07727587634412        0.55904113890242        2.79323148916923
H           -0.54678359514081        0.50625730976091        2.06560686044066
10
 energy: -16.148652811301 gnorm: 0.001707282862 xtb: 6.5.1 (579679a)
C           -1.54069281131794        0.21057742945011       -0.12811817181856
C           -0.37337715680286       -0.06826658643984       -0.67236337376582
Cl           2.42696532455267       -0.15814081377340        0.97819107947485
H            0.92954630645861        0.33687735475656        2.34838651378687
H           -2.17131438393106       -0.55289105949840        0.30255880699166
H           -1.92236014411261        1.21951896117622       -0.07048603756884
H            0.02674049418329       -1.06667949043601       -0.68728503790715
H            0.27451238186115        0.69846266249990       -1.05973580779030
O            0.07733670509199        0.54889848765762        2.78988080995372
H           -0.54707671598161        0.50759305460339        2.06188121863760
10
 energy: -16.148666232896 gnorm: 0.000928034472 xtb: 6.5.1 (579679a)
C           -1.54179856229225        0.21137842368312       -0.12542493219229
C           -0.37172540745997       -0.06682763955708       -0.66513802734093
Cl           2.42864320205395       -0.15846894721069        0.98040498236636
H            0.93226041993732        0.33685555950312        2.34734282038453
H           -2.17676187559267       -0.55324767701459        0.29720209712865
H           -1.92777814742288        1.21889455653145       -0.07612712038206
H            0.02662687967218       -1.06570439480690       -0.68548201836020
H            0.27414364022136        0.69857409498867       -1.05759928003097
O            0.08038687921727        0.54802582848842        2.78827993113137
H           -0.54371702833270        0.50647019539063        2.05945154728959
10
 energy: -16.148672171990 gnorm: 0.000499253840 xtb: 6.5.1 (579679a)
C           -1.54491507124404        0.21150669640084       -0.12670919921098
C           -0.37143449293164       -0.06553747819721       -0.65903918255233
Cl           2.43558807806384       -0.15968737122718        0.97894460702334
H            0.93260637742904        0.33390561165128        2.34273547962498
H           -2.18062628942062       -0.55334900054251        0.29426980867180
H           -1.93163800777804        1.21883028608317       -0.07877849979982
H            0.02793092338322       -1.06414021314211       -0.67716620599520
H            0.27512765768863        0.70037554739902       -1.04967946331468
O            0.08125588611154        0.54941623182230        2.78312163456049
H           -0.54361506130033        0.50462968974855        2.05521102098645
10
 energy: -16.148677522837 gnorm: 0.000231692359 xtb: 6.5.1 (579679a)
C           -1.54864763409157        0.21182417741004       -0.12753837003047
C           -0.37207356707963       -0.06396784981831       -0.65316407614143
Cl           2.44181182576178       -0.16193421317301        0.97785085699002
H            0.93416834271104        0.33202350057606        2.33671051141114
H           -2.18602029662142       -0.55369980408350        0.28974431741936
H           -1.93748589807623        1.21852898606810       -0.08337171281021
H            0.03032509776640       -1.06154091980577       -0.66646570378048
H            0.27702810363633        0.70248131582934       -1.03881182315544
O            0.08358482203275        0.55042152723298        2.77737092670656
H           -0.54241079603785        0.50181327976022        2.05058507338500
10
 energy: -16.148683611488 gnorm: 0.000444815563 xtb: 6.5.1 (579679a)
C           -1.55502727490561        0.21222314243291       -0.12935715971889
C           -0.37184576366143       -0.06109595343889       -0.64163210916256
Cl           2.45075871414020       -0.16672833739923        0.97643665770927
H            0.93707726969051        0.33178379107809        2.32561706337723
H           -2.19448913080752       -0.55426141151051        0.28300079595374
H           -1.94685069012758        1.21801968232470       -0.09005094346212
H            0.03432034034662       -1.05727584870226       -0.64898155990868
H            0.27999042757802        0.70616684500919       -1.02122829747190
O            0.08677932930370        0.54957556517400        2.76729330573375
H           -0.54043322155533        0.49754252502815        2.04181224694426
10
 energy: -16.148686586182 gnorm: 0.000283658627 xtb: 6.5.1 (579679a)
C           -1.56044477831188        0.21266860381942       -0.12989684406956
C           -0.37167780594657       -0.05816387675611       -0.63024458958553
Cl           2.45949538578416       -0.17185086329966        0.97465688489712
H            0.94041924370451        0.33150072215631        2.31615291991737
H           -2.20289545265951       -0.55518115949710        0.27543658762558
H           -1.95633452105846        1.21720547479331       -0.09747331115986
H            0.03777063576604       -1.05299121080516       -0.63147721544241
H            0.28216882920794        0.71030574398369       -1.00381131850181
O            0.08962357502802        0.54881477724732        2.75726816043082
H           -0.53784511151268        0.49364178835414        2.03229872588240
10
 energy: -16.148686907354 gnorm: 0.000149175263 xtb: 6.5.1 (579679a)
C           -1.56252751978245        0.21264313582195       -0.13059916310778
C           -0.37154723000372       -0.05708938281054       -0.62646841913341
Cl           2.46231411854688       -0.17361683623569        0.97472204601564
H            0.94117961596584        0.33059357385600        2.31259890444744
H           -2.20527836239447       -0.55563625747763        0.27329463676293
H           -1.95952470782611        1.21666735625196       -0.09988346111880
H            0.03890883394949       -1.05141934697570       -0.62605714339233
H            0.28266100928991        0.71181552363078       -0.99822269206916
O            0.09104612049299        0.54868920560052        2.75406131759708
H           -0.53695187823682        0.49330302833450        2.02946397399252
