10
 energy: -15.897483186603 gnorm: 1.425590133392 xtb: 6.4.1 (afa7bdf)
C        -1.52906023093379    0.30291989036568   -0.31610075182526
C        -0.41519544454540    0.05202530936360   -0.97201753380574
Cl        2.38789920313271   -0.36703069593117    1.31537315723129
H         0.51606251400009   -0.02892851897386    2.16628883358826
H        -1.53528702384480    0.36832893369268    0.75835344112369
H        -2.47824156360451    0.45099357897407   -0.81661912652475
H         0.51702840545121   -0.09308380963649   -0.45096141657672
H        -0.38529322481242   -0.02012291175829   -2.05082789900803
O        -0.19529780656891    0.27183937067187    2.77614603163906
H         0.29766517172745    0.73900885323502    3.45327526416199
10
 energy: -16.139013020748 gnorm: 0.224441492371 xtb: 6.4.1 (afa7bdf)
C        -1.57617347669426    0.31493745766533   -0.37619705053152
C        -0.42666899002116    0.05351670664130   -0.98177193411202
Cl        2.38881983820036   -0.36611491090279    1.31510519839446
H         0.60417762764988   -0.05273624347153    2.27283750854849
H        -1.54448723496112    0.36844840225889    0.73468517513594
H        -2.50021460836816    0.45321619905462   -0.83492085192928
H         0.50959849020395   -0.09159138946359   -0.44995673612812
H        -0.38240315480758   -0.02146630080654   -2.05449180982315
O        -0.18261908479668    0.27388418589572    2.77661225466961
H         0.29025059359643    0.74385589313169    3.46100824577940
10
 energy: -16.148635040321 gnorm: 0.032868499478 xtb: 6.4.1 (afa7bdf)
C        -1.57224849473814    0.33567959468822   -0.38143224960538
C        -0.43162458979545    0.05395223528937   -0.98451863001325
Cl        2.39264890276987   -0.35822312589771    1.31677625948089
H         0.62646900008559   -0.08616895714190    2.30431161783264
H        -1.55051909920155    0.36795854834616    0.71864917596549
H        -2.51852746890795    0.44878329176620   -0.84857152204179
H         0.49966858912874   -0.08937731096414   -0.45047023643611
H        -0.38171555327360   -0.02727193028422   -2.05992596133107
O        -0.16978781478336    0.27196009621241    2.78019775509406
H         0.28591652871663    0.75865755798951    3.46789379105724
10
 energy: -16.147357558620 gnorm: 0.069001808408 xtb: 6.4.1 (afa7bdf)
C        -1.59551867049923    0.23046157978682   -0.37507443606680
C        -0.43631603100131    0.06048796147901   -0.98843446692315
Cl        2.38659245548518   -0.40214611292692    1.32544955222959
H         0.67110363752356    0.01863084872795    2.29370009066437
H        -1.55822017149547    0.38278951722026    0.70456564664933
H        -2.52140172358794    0.48665961606137   -0.86524151440205
H         0.48934889161922   -0.08776846043648   -0.44976502605808
H        -0.37323092666331   -0.00403289855471   -2.06683916412650
O        -0.15181333098146    0.24671654784229    2.79141423465328
H         0.26973586960003    0.74415140080569    3.49313508338083
10
 energy: -16.150315402031 gnorm: 0.016271316640 xtb: 6.4.1 (afa7bdf)
C        -1.57291408642325    0.30750834940713   -0.37251308275133
C        -0.43856330110138    0.05693754983968   -0.99074030037458
Cl        2.39591357432782   -0.37178208051111    1.32403667457207
H         0.64970886510007   -0.06559540213329    2.30617240677340
H        -1.56296167927527    0.37534000283651    0.70122279804442
H        -2.52568624840674    0.45943151628202   -0.86556856629293
H         0.48397241763561   -0.08611834726759   -0.45064718828253
H        -0.37750796213303   -0.02236198626090   -2.06916391250169
O        -0.14593215079354    0.25322182766224    2.79383968487368
H         0.27425057106808    0.76936857015141    3.48627148593921
10
 energy: -16.150568857943 gnorm: 0.009161109290 xtb: 6.4.1 (afa7bdf)
C        -1.57165330977025    0.31210295650004   -0.37154701134749
C        -0.44046239879901    0.05680949569731   -0.99466444648534
Cl        2.40014946298268   -0.37156591613130    1.32598902083607
H         0.65061874989615   -0.07143452720419    2.30469981867064
H        -1.56876087939646    0.37619757189240    0.70090361670315
H        -2.52436462292701    0.45762267102863   -0.86975869989081
H         0.47955703843520   -0.08504664911729   -0.45072419901763
H        -0.37741199257519   -0.02365888425431   -2.07221662416785
O        -0.13939032090244    0.24867758277853    2.80070741617977
H         0.27199827305374    0.77624569881716    3.48952110851802
10
 energy: -16.150862235299 gnorm: 0.009843900196 xtb: 6.4.1 (afa7bdf)
C        -1.57181921545157    0.31347876038198   -0.37196524410469
C        -0.44470963829655    0.05683694469196   -1.00344115416469
Cl        2.41082809752748   -0.37546771033449    1.33035107813314
H         0.65315363751465   -0.07237114836121    2.29953667657663
H        -1.58248003604730    0.37865016777215    0.70161461730299
H        -2.51882842005465    0.45649684075727   -0.87957884741005
H         0.47046076367490   -0.08291582267597   -0.45112700380971
H        -0.37798876867398   -0.02408190683199   -2.07906008135514
O        -0.12615948044385    0.23639244131299    2.81929214308196
H         0.26782306024592    0.78893143329642    3.49728781574515
10
 energy: -16.150934275840 gnorm: 0.006678881399 xtb: 6.4.1 (afa7bdf)
C        -1.57288441000755    0.31187748718831   -0.37367320143501
C        -0.44618995247275    0.05701563305958   -1.00618353248746
Cl        2.41650862457574   -0.37851113704778    1.33200316604996
H         0.65390536177853   -0.06841250919710    2.29798321467300
H        -1.58858989768954    0.37949919079942    0.70117665877561
H        -2.51651256948851    0.45687542895684   -0.88439879688114
H         0.46756917116847   -0.08239277173427   -0.45177703694388
H        -0.37919338323975   -0.02340520851941   -2.08170954145571
O        -0.12189339432263    0.22990020537254    2.82938604142735
H         0.26756044969183    0.79350368113208    3.50010302827140
10
 energy: -16.151000305415 gnorm: 0.003411797292 xtb: 6.4.1 (afa7bdf)
C        -1.57464653993639    0.30995746063811   -0.37681977328055
C        -0.44711412191493    0.05728505802295   -1.00792921083081
Cl        2.42434870502967   -0.38235760476181    1.33359059589140
H         0.65276168131667   -0.06156538666142    2.29691667665118
H        -1.59574820015508    0.37994789384309    0.69963980817088
H        -2.51446322414458    0.45752615832906   -0.89058407607955
H         0.46607070313604   -0.08242544054802   -0.45327242477391
H        -0.38185073520651   -0.02213323202550   -2.08403461618695
O        -0.11888822003623    0.22124316634890    2.84338165704753
H         0.26980995190360    0.79847192682631    3.50202136338294
10
 energy: -16.151040045800 gnorm: 0.004607813361 xtb: 6.4.1 (afa7bdf)
C        -1.57570739361720    0.31046978907491   -0.37938720285328
C        -0.44701179196924    0.05749834695273   -1.00788886272071
Cl        2.43034491387985   -0.38383577453442    1.33438139543031
H         0.64931896392022   -0.05838942419183    2.29737110596432
H        -1.60043992019018    0.37974718685624    0.69746663218826
H        -2.51411199047465    0.45755609188613   -0.89524459331514
H         0.46684157536221   -0.08300835848879   -0.45497959461078
H        -0.38461187701044   -0.02136922399171   -2.08471760632302
O        -0.11831182729562    0.21500275584845    2.85418734490243
H         0.27396934738615    0.80227861060099    3.50172138132832
10
 energy: -16.151076576726 gnorm: 0.004347101573 xtb: 6.4.1 (afa7bdf)
C        -1.57654234466806    0.31292454143968   -0.38198439231327
C        -0.44632122845431    0.05777346629608   -1.00686799267814
Cl        2.43642957993462   -0.38327360965560    1.33500181223456
H         0.64276495537831   -0.05882293468722    2.29918435711400
H        -1.60492301091016    0.37929847352317    0.69428372016828
H        -2.51470321036151    0.45712572514514   -0.90035295514408
H         0.46932903975821   -0.08407321195515   -0.45735793551807
H        -0.38797015496867   -0.02086412437403   -2.08440229855019
O        -0.11884893368207    0.20908591057592    2.86580417158973
H         0.28106530796359    0.80677576370577    3.49960151308646
10
 energy: -16.151096903914 gnorm: 0.002455167962 xtb: 6.4.1 (afa7bdf)
C        -1.57690415827890    0.31500634097503   -0.38307885724755
C        -0.44574141968643    0.05798108378194   -1.00587791781595
Cl        2.43891779648086   -0.38082035857040    1.33535305758004
H         0.63701537950959   -0.06316483119582    2.30121418429885
H        -1.60710890752676    0.37923520031942    0.69212012440372
H        -2.51541344890218    0.45676097497397   -0.90332833603909
H         0.47161767116367   -0.08484824321413   -0.45901061537945
H        -0.38965849378447   -0.02078423509232   -2.08351553138168
O        -0.11961907504659    0.20697216605631    2.87198627522131
H         0.28717465606072    0.80961190198016    3.49704761634853
10
 energy: -16.151115446456 gnorm: 0.002238582718 xtb: 6.4.1 (afa7bdf)
C        -1.57732675003084    0.31627144200866   -0.38366683998275
C        -0.44541373002038    0.05817947808326   -1.00515660680026
Cl        2.43972930497085   -0.37682588203331    1.33591779961470
H         0.63090851186304   -0.07065762269123    2.30354414260357
H        -1.60907318733245    0.37972956711593    0.69038625985844
H        -2.51573110936823    0.45669322943441   -0.90612693892114
H         0.47358855373308   -0.08542057004986   -0.46049476232505
H        -0.39040516918106   -0.02074239247404   -2.08253723505930
O        -0.12014157617712    0.20625501142009    2.87709046793490
H         0.29414515153241    0.81246773920044    3.49395371306536
10
 energy: -16.151136794469 gnorm: 0.003745939497 xtb: 6.4.1 (afa7bdf)
C        -1.57806389209480    0.31639473010704   -0.38432713831885
C        -0.44538957035575    0.05835880128002   -1.00483421756547
Cl        2.43934985043706   -0.37088465815276    1.33701762864607
H         0.62334406082036   -0.08185396060123    2.30646944512968
H        -1.61195967785533    0.38096000059533    0.68882258129546
H        -2.51527526814303    0.45710582942509   -0.90985164024506
H         0.47510189422514   -0.08579120462033   -0.46202497368904
H        -0.39037778085159   -0.02051363883074   -2.08176261023527
O        -0.12020851052691    0.20576524246532    2.88361867407694
H         0.30375889433401    0.81640885834674    3.48978225089384
10
 energy: -16.151158201906 gnorm: 0.003786597737 xtb: 6.4.1 (afa7bdf)
C        -1.57904446708181    0.31497209048742   -0.38529031499433
C        -0.44563859452099    0.05841006208350   -1.00507642051270
Cl        2.43738137716176   -0.36367051892769    1.33861273637187
H         0.61507899169424   -0.09497281151481    2.30970044986314
H        -1.61569400623557    0.38275629259305    0.68768348564751
H        -2.51384015061125    0.45809047829417   -0.91420664946274
H         0.47556648781315   -0.08581444668390   -0.46312565652494
H        -0.38937169123711   -0.01997013053412   -2.08163564244463
O        -0.11970320938827    0.20508929368168    2.89160079862234
H         0.31554526239488    0.82105969053529    3.48464721342263
10
 energy: -16.151172489659 gnorm: 0.002279710075 xtb: 6.4.1 (afa7bdf)
C        -1.57971202441497    0.31284961435890   -0.38624723283826
C        -0.44588792233614    0.05825384827185   -1.00572727774248
Cl        2.43425566360219   -0.35857838921596    1.33990178274441
H         0.60985715328219   -0.10328522826007    2.31180445332113
H        -1.61844959234387    0.38403126876874    0.68732188587896
H        -2.51221566162788    0.45914611173106   -0.91707582198977
H         0.47463987050663   -0.08548442323637   -0.46292621040276
H        -0.38773140967152   -0.01932585972022   -2.08233170705937
O        -0.11885784710900    0.20421268462793    2.89765225347805
H         0.32438177010135    0.82413037268876    3.48053787459815
10
 energy: -16.151182115875 gnorm: 0.001289330357 xtb: 6.4.1 (afa7bdf)
C        -1.57996714157973    0.31132492426269   -0.38713556576401
C        -0.44594899181226    0.05801173999699   -1.00644737938504
Cl        2.43079736403383   -0.35587525021861    1.34067564378282
H         0.60748821742528   -0.10656047383430    2.31274777058240
H        -1.62007094771527    0.38439301163603    0.68715308506914
H        -2.51107407207349    0.45987866346419   -0.91854317261247
H         0.47301894656701   -0.08506884269067   -0.46163644518255
H        -0.38599150865091   -0.01878332481580   -2.08339295056750
O        -0.11787569953651    0.20274808659532    2.90190006585470
H         0.32990383333095    0.82588146561886    3.47758894821048
10
 energy: -16.151192124508 gnorm: 0.002830998659 xtb: 6.4.1 (afa7bdf)
C        -1.57995317360350    0.31053116082195   -0.38855911608089
C        -0.44566344843063    0.05769728977302   -1.00735978416763
Cl        2.42468869095045   -0.35326901564924    1.34121836396716
H         0.60562452712338   -0.10809945438772    2.31319593169082
H        -1.62152626115203    0.38373840963563    0.68648272034153
H        -2.51023584688783    0.46048621740544   -0.91982945848292
H         0.47032431762186   -0.08455571700519   -0.45841767178002
H        -0.38313020229681   -0.01814628991363   -2.08489048455107
O        -0.11624594111504    0.19947076584974    2.90769867004078
H         0.33639733777889    0.82809663348484    3.47337082901000
10
 energy: -16.151198032513 gnorm: 0.002277279432 xtb: 6.4.1 (afa7bdf)
C        -1.57978090956031    0.31133383343710   -0.38901052730653
C        -0.44529064977734    0.05775677336475   -1.00729386470867
Cl        2.42199595871902   -0.35263849984334    1.34082496531120
H         0.60526785813169   -0.10810136292418    2.31295882393982
H        -1.62131189116174    0.38285793226205    0.68585743761953
H        -2.51065959394922    0.46037574016003   -0.91985696093436
H         0.46981646758310   -0.08458933042505   -0.45682477947131
H        -0.38201443296771   -0.01809124119448   -2.08479688728303
O        -0.11573969440774    0.19821679667975    2.90924935036175
H         0.33799688737897    0.82882935849824    3.47180244245934
10
 energy: -16.151207162190 gnorm: 0.001095378085 xtb: 6.4.1 (afa7bdf)
C        -1.57951904360835    0.31342466185177   -0.39039935519598
C        -0.44419031896200    0.05813928958243   -1.00675848958108
Cl        2.41404910826216   -0.35000046251777    1.33916678654745
H         0.60301789989393   -0.11025226562295    2.31261296407119
H        -1.62100779113652    0.38048382101433    0.68382868371557
H        -2.51189203473471    0.46019462814467   -0.92057333963559
H         0.46891745058738   -0.08482760884489   -0.45255114440983
H        -0.37858390830249   -0.01782942057647   -2.08387632303036
O        -0.11412165336272    0.19476456686500    2.91457565281819
H         0.34361029135208    0.83185279011868    3.46688456468822
10
 energy: -16.151210456715 gnorm: 0.001208707215 xtb: 6.4.1 (afa7bdf)
C        -1.57958503725543    0.31372680814129   -0.39081518238137
C        -0.44366106555746    0.05846815690481   -1.00606325974012
Cl        2.41053238388573   -0.34913883237105    1.33725701694577
H         0.60206716842077   -0.11155080142135    2.31244844903893
H        -1.62063158081807    0.37950475161742    0.68319315477277
H        -2.51239597940102    0.46026309115240   -0.92078574890918
H         0.46904841942841   -0.08501209226098   -0.45092370662064
H        -0.37678743880513   -0.01757399187478   -2.08278961188196
O        -0.11330094269422    0.19412798427246    2.91614572080662
H         0.34499407278541    0.83313492585440    3.46524316795724
10
 energy: -16.151236056315 gnorm: 0.001133524937 xtb: 6.4.1 (afa7bdf)
C        -1.57868345551578    0.30942979558460   -0.38879878887039
C        -0.43986880872089    0.05847259452306   -1.00043578769734
Cl        2.40094922033751   -0.35383014106416    1.31117086543549
H         0.60150364138568   -0.11245602232988    2.31642489837155
H        -1.62333163768584    0.37713747411679    0.68535631663964
H        -2.50826992628296    0.46104246430690   -0.92263329375091
H         0.47194529864770   -0.08462626577453   -0.44377803667713
H        -0.36873431714826   -0.01324018344677   -2.07711716239895
O        -0.11376295682985    0.19142768090283    2.92135305384399
H         0.33853294180165    0.84259260319575    3.46136793509220
10
 energy: -16.151253020347 gnorm: 0.002249923181 xtb: 6.4.1 (afa7bdf)
C        -1.57715647396950    0.31182446935490   -0.38726143318766
C        -0.43409053585447    0.06407694643192   -0.99222300671502
Cl        2.38590602729266   -0.36034458571400    1.28167425162350
H         0.60013097877267   -0.11593754996274    2.31943135481030
H        -1.63136260265921    0.36567164415131    0.68772865342407
H        -2.50387039729703    0.45955629018189   -0.92683883429405
H         0.47415450167835   -0.08812408957734   -0.43187938770925
H        -0.35683669242055   -0.00613110370142   -2.06860384174088
O        -0.10996155556194    0.18401595342259    2.93210480168113
H         0.33336675000793    0.86134202542745    3.44877744209616
10
 energy: -16.151267188632 gnorm: 0.001788120432 xtb: 6.4.1 (afa7bdf)
C        -1.57755951820824    0.30869358305781   -0.38624416930381
C        -0.43215195253260    0.06276563449841   -0.98745994783396
Cl        2.37616390209951   -0.36102862410426    1.27249068569370
H         0.59770655145760   -0.12425151965320    2.32114960165293
H        -1.63610107162224    0.36050887281288    0.68849757477981
H        -2.50178968277027    0.46046343268959   -0.92920299836860
H         0.47520937400987   -0.08705040209926   -0.42487331291324
H        -0.35008281152300    0.00128385737297   -2.06422240102671
O        -0.10774543973571    0.18420714367759    2.93441567720305
H         0.33663064881395    0.87035802176199    3.43835929010523
10
 energy: -16.151277065629 gnorm: 0.002454434381 xtb: 6.4.1 (afa7bdf)
C        -1.58068502815864    0.30139707980290   -0.38628092169266
C        -0.42973754320383    0.06480466115880   -0.98068174777263
Cl        2.36692419540993   -0.36605209240463    1.26456412068116
H         0.59346399437079   -0.13336839287894    2.32156672725269
H        -1.64687729326631    0.35075203213857    0.68768669659049
H        -2.50022325870999    0.46214413658300   -0.93530607334561
H         0.47402276541494   -0.08585634208491   -0.41223302515781
H        -0.33921417863584    0.01484306623864   -2.05761945920699
O        -0.10120773349478    0.17940021981547    2.94449233991369
H         0.34381408026256    0.88788563164560    3.41672134272624
10
 energy: -16.151285956410 gnorm: 0.001188343380 xtb: 6.4.1 (afa7bdf)
C        -1.58182837584874    0.29919115631430   -0.38513974050578
C        -0.42808243860114    0.06827361806910   -0.97628713876214
Cl        2.36553587870556   -0.36979086778935    1.26173082294164
H         0.59050472305678   -0.14226023639485    2.32324486459022
H        -1.65312063288939    0.34224755542939    0.68862092596859
H        -2.49959068249865    0.46122668198696   -0.93696695564135
H         0.47309053440847   -0.08536388717548   -0.40450977112130
H        -0.33362522089273    0.02301399385044   -2.05299978028237
O        -0.10130289076591    0.18484588708703    2.94184332138247
H         0.34869910531450    0.89456609863689    3.40337345141871
10
 energy: -16.151301174023 gnorm: 0.001108580720 xtb: 6.4.1 (afa7bdf)
C        -1.58371557889240    0.29860693207017   -0.38331675704131
C        -0.42660987881000    0.07258306898448   -0.96946147733455
Cl        2.36898950032039   -0.38270911183917    1.25959823848247
H         0.58802283589072   -0.15090071757265    2.32447673458920
H        -1.66358687659499    0.32663629527289    0.69071311185632
H        -2.49932493135327    0.45869128248309   -0.93902840293029
H         0.47134915300695   -0.08246992585649   -0.39332660195775
H        -0.32539470430304    0.03858893905895   -2.04573166716493
O        -0.09953707480377    0.18408392068840    2.94314354436019
H         0.35008755552809    0.91283931672465    3.37584327712957
10
 energy: -16.151314497605 gnorm: 0.003547052009 xtb: 6.4.1 (afa7bdf)
C        -1.58748974623310    0.29271892745848   -0.37777694596791
C        -0.42355110011193    0.08478441358325   -0.95788641312814
Cl        2.37383345893608   -0.40699041600892    1.26222318546959
H         0.58866879755549   -0.16491433474268    2.32497505098537
H        -1.67827815127582    0.30216891032705    0.69603821014266
H        -2.49944612791984    0.45421498393624   -0.93903796470263
H         0.46947762867922   -0.07861555002403   -0.37631322189880
H        -0.31355207347028    0.06533495838352   -2.03327186124062
O        -0.09681448072399    0.18439634888800    2.93676882233391
H         0.34743179455271    0.94285175821326    3.32719113799589
10
 energy: -16.151330216393 gnorm: 0.002162995731 xtb: 6.4.1 (afa7bdf)
C        -1.59020201698886    0.28891857935823   -0.37346915476481
C        -0.42356993142052    0.09171211785777   -0.95201797719173
Cl        2.38331602351558   -0.42768930898070    1.27324682656183
H         0.59471687025991   -0.16583780494843    2.32238602829460
H        -1.68424024193925    0.28835156721482    0.69998050050391
H        -2.50140060970543    0.44964027431272   -0.93592913381067
H         0.46831366150279   -0.07353751492859   -0.36937925828196
H        -0.31028867344990    0.08128807792547   -2.02688718735309
O        -0.09683244191591    0.18869339364496    2.92322098715550
H         0.34046736013005    0.95441061855775    3.30175836887596
10
 energy: -16.151354857905 gnorm: 0.003427677623 xtb: 6.4.1 (afa7bdf)
C        -1.59512273589929    0.27780692277757   -0.36171413413595
C        -0.42102975960426    0.10625954430611   -0.93388667596573
Cl        2.39412031846709   -0.47273512701699    1.28463568915672
H         0.60431341590687   -0.18353509077336    2.32131792836675
H        -1.69948252298931    0.25102803346060    0.71085243016383
H        -2.50259213076424    0.44159687448182   -0.92949669038370
H         0.46800139486445   -0.06165335786490   -0.34770786263258
H        -0.29693215559599    0.12460203528096   -2.00838827190047
O        -0.09637003251550    0.19772952847639    2.89671618681939
H         0.32537420811838    0.99485063688548    3.23058140050192
10
 energy: -16.151367570509 gnorm: 0.001534300647 xtb: 6.4.1 (afa7bdf)
C        -1.59514710300961    0.27319511529757   -0.35626439039931
C        -0.42109182338789    0.11024651266708   -0.92958265580195
Cl        2.39757941543723   -0.48803146400591    1.29282273176528
H         0.61253592129548   -0.18592563723417    2.32060979198393
H        -1.69637338796392    0.24232236232746    0.71552304410073
H        -2.50317458024153    0.43938515213825   -0.92240699393527
H         0.46986856394567   -0.05697734082390   -0.34613724141462
H        -0.29805512048953    0.13616940448412   -2.00375372591080
O        -0.09824095069068    0.20152140260127    2.88116895049034
H         0.31237906509291    1.00404449256182    3.21093048911199
10
 energy: -16.151373438726 gnorm: 0.003202331254 xtb: 6.4.1 (afa7bdf)
C        -1.59521822224658    0.26781711275203   -0.35118951680895
C        -0.42002369722808    0.11495936349316   -0.92459246327439
Cl        2.39734337665866   -0.50434749559865    1.29744697814718
H         0.61924267443507   -0.18656111236886    2.32075710536370
H        -1.69515571464192    0.22906319791296    0.72040279675176
H        -2.50296364500921    0.43915909846480   -0.91629813382982
H         0.47147640610412   -0.05496711195483   -0.34234767074065
H        -0.29660424977504    0.15155761437559   -1.99837035331782
O        -0.09730501019241    0.20022653826626    2.87315642482509
H         0.29948808188346    1.01904279467102    3.18394483287444
10
 energy: -16.151378431674 gnorm: 0.001876728723 xtb: 6.4.1 (afa7bdf)
C        -1.59342873622071    0.26810624178188   -0.35204562373072
C        -0.41989664373941    0.11318667392810   -0.92816111923939
Cl        2.39357839063302   -0.49880766662731    1.29618800005336
H         0.61818831003783   -0.18309162037296    2.32250968705277
H        -1.68935400839837    0.23109695351126    0.72015967194188
H        -2.50246141064978    0.44203155343822   -0.91421584633398
H         0.47255955279438   -0.05900791048577   -0.34778146639973
H        -0.29971716666179    0.14830181065576   -2.00208379807057
O        -0.09765357538711    0.19879270131412    2.87798034855138
H         0.29846528758005    1.01534126287022    3.19036014616546
10
 energy: -16.151393690722 gnorm: 0.002266210943 xtb: 6.4.1 (afa7bdf)
C        -1.59158786776355    0.26249854472158   -0.34620210675419
C        -0.41726082928853    0.11967482831188   -0.92554969520293
Cl        2.39274545589772   -0.51349282607228    1.29948687876267
H         0.61809542063485   -0.19180813417425    2.32908838715768
H        -1.68575061431144    0.20880857267211    0.72685956823371
H        -2.50178322974117    0.44352926988314   -0.90390388584007
H         0.47462519397081   -0.06280371369955   -0.34713713146120
H        -0.29776003627592    0.17077711936063   -1.99936019818635
O        -0.09957653079222    0.20334358622712    2.87486924714226
H         0.28853303765747    1.03542275278304    3.15475893613913
10
 energy: -16.151410479091 gnorm: 0.004596968106 xtb: 6.4.1 (afa7bdf)
C        -1.58570672736736    0.25785687038749   -0.33897368198120
C        -0.41432669110642    0.12369395323721   -0.92619532469754
Cl        2.38687816959249   -0.52392859311781    1.30135509280429
H         0.61572446032072   -0.20305635517597    2.34210663694640
H        -1.67339426880160    0.18508556931440    0.73405488011211
H        -2.49951561923987    0.44842597588900   -0.88707221760212
H         0.47917365133471   -0.06919467047967   -0.35413723589153
H        -0.29953657892021    0.19393070100993   -1.99957991747696
O        -0.10199998489332    0.20371163232193    2.88006515834063
H         0.27298358906882    1.05942491662683    3.11128660943684
10
 energy: -16.151429220063 gnorm: 0.002711014592 xtb: 6.4.1 (afa7bdf)
C        -1.57859195213468    0.26006207085757   -0.33765562006626
C        -0.41332591388686    0.11926376372901   -0.93477154313234
Cl        2.37823159919723   -0.51185769572159    1.29661147546466
H         0.60972316001814   -0.20619551556908    2.35367247672477
H        -1.65749072850345    0.18454082078728    0.73520648067449
H        -2.49694597832838    0.45537344465411   -0.87636265503058
H         0.48366869386672   -0.07737554581203   -0.37019524477513
H        -0.30678260595907    0.19131077799636   -2.00839914348904
O        -0.10462247751194    0.20045895699242    2.89529422249333
H         0.26641620323032    1.06036892209939    3.10950955112692
10
 energy: -16.151442074089 gnorm: 0.003778541326 xtb: 6.4.1 (afa7bdf)
C        -1.57138749581229    0.25779597373112   -0.33003639035156
C        -0.41170226317313    0.11964700948952   -0.93884188900727
Cl        2.37237532564304   -0.51652163219513    1.29774868616934
H         0.61042421428906   -0.21169888078126    2.36625028576455
H        -1.64169773491194    0.17133499027802    0.74202773226324
H        -2.49385053512961    0.46120745988035   -0.85925342761128
H         0.49007621646154   -0.08195761576618   -0.38372626971623
H        -0.31316727448296    0.20285911343900   -2.01270888920790
O        -0.10728901557905    0.19871114629694    2.90046936611306
H         0.24649856268335    1.07457243564104    3.08098079557496
10
 energy: -16.151455250266 gnorm: 0.001596202702 xtb: 6.4.1 (afa7bdf)
C        -1.56519424256789    0.25796904105807   -0.32276206721540
C        -0.41190585223567    0.11844210711125   -0.94331114981197
Cl        2.37079433872058   -0.51851055793989    1.30077727938711
H         0.61528384586094   -0.21179063721733    2.37451629267147
H        -1.62824875487288    0.16960875749387    0.74794735654895
H        -2.49057276217018    0.46484734592792   -0.84586456286757
H         0.49586965028287   -0.08298733630845   -0.39765073910150
H        -0.32183650630953    0.20411463766534   -2.01778295669491
O        -0.10904046970404    0.19516069919847    2.90172993365357
H         0.22513075298387    1.07909594302420    3.06531061342119
10
 energy: -16.151446375006 gnorm: 0.007548978398 xtb: 6.4.1 (afa7bdf)
C        -1.55647300127034    0.25536428875872   -0.31015594290538
C        -0.41033784426983    0.12305109919605   -0.94531597696459
Cl        2.36977812619949   -0.53040435565187    1.30914407476000
H         0.62080431520677   -0.21889269601383    2.38873246207561
H        -1.61004790762312    0.15298155321215    0.75987580222223
H        -2.48588385377411    0.46965267815058   -0.82325155842835
H         0.50281612208159   -0.08815836180267   -0.41107880799944
H        -0.33103658754361    0.22238836501505   -2.01953291590211
O        -0.11048892943238    0.18969499001520    2.90435215545240
H         0.19114956041360    1.10027243913402    3.01014070768077
10
 energy: -16.151472313451 gnorm: 0.002992247519 xtb: 6.4.1 (afa7bdf)
C        -1.56229658580623    0.25751153739700   -0.31606474825819
C        -0.41142633472754    0.12307354890855   -0.94116861276035
Cl        2.37480424974899   -0.52635695932477    1.30829157217070
H         0.61977192319074   -0.21604757083160    2.37895815972773
H        -1.62344704790581    0.16316935596589    0.75484115721698
H        -2.48821655746388    0.46515023361158   -0.83726800005648
H         0.49740315846986   -0.08420402927793   -0.39878600370351
H        -0.32536806712193    0.21346406487078   -2.01511525238117
O        -0.10790780078348    0.19049269974384    2.90097637547550
H         0.20696306238733    1.08969711895007    3.02824535255986
10
 energy: -16.151482910416 gnorm: 0.001172900105 xtb: 6.4.1 (afa7bdf)
C        -1.56407867984861    0.25789019656419   -0.31492101755032
C        -0.41104802926858    0.12456127691570   -0.93622256279088
Cl        2.37843625393555   -0.52952878748301    1.30931904914235