10
 energy: -16.102994754829 xtb: 6.5.1 (579679a)
C           -0.70637438086759        0.17262760721243        0.33274280182974
C            0.66341998843492       -0.09380322960093       -0.02190071662114
Cl           0.93285614985844       -0.54317438806383       -2.00868470134795
H           -0.75988374541906        0.40510594803081        1.41897230293183
H           -1.35842309961246       -0.68636214780940        0.17450073038809
H           -1.11501364678718        1.04130165113052       -0.18353795436880
H            1.09141042706838       -0.99646697141723        0.39572992998658
H            1.33775101467532        0.75153227235961        0.03379214359808
O           -0.97892359810673        0.73164394349296        2.84233599007290
H           -1.92653910924296        0.89354531466561        2.87895947352709
10
 energy: -16.119040909426 xtb: 6.5.1 (579679a)
C           -0.68792499483998        0.16818413896995        0.32560000839362
C            0.63022824291845       -0.06483663983714        0.09628161339728
Cl           1.07794062130615       -0.61448203201612       -2.26084367878853
H           -0.78082763362449        0.45807003444140        1.66639540845893
H           -1.36969505885755       -0.67450922306775        0.32057458593875
H           -1.12102385664421        1.09044008384103       -0.04447248160049
H            1.06939781066206       -1.01731988499247        0.33559928966649
H            1.31864631798042        0.75216795157988       -0.03001980951391
O           -1.00558176320485        0.70918982356971        2.72075019426555
H           -1.95087968569493        0.86904574751206        2.73304486977878
10
 energy: -16.130298844354 xtb: 6.5.1 (579679a)
C           -0.69674777726957        0.15307141073849        0.24908163200803
C            0.61332264626068       -0.05890555633028        0.11465404256752
Cl           1.24320071569764       -0.67343604461012       -2.43880612751508
H           -0.78002704323488        0.49484651738040        1.84791792616737
H           -1.38663406566799       -0.67456664661367        0.34093820944011
H           -1.13664724112421        1.10178223635032       -0.02642233340996
H            1.05002387635692       -1.02542077315283        0.28787681325460
H            1.29915481607927        0.74569932714766       -0.07798328902589
O           -1.03978540037221        0.72868904515160        2.79707794970712
H           -1.98558052672457        0.88419048393898        2.76857517680264
10
 energy: -16.134439224511 xtb: 6.5.1 (579679a)
C           -0.72959447801628        0.13991650019123        0.16632352940943
C            0.57939276430893       -0.05793798954410        0.09785923891681
Cl           1.40044402982972       -0.71255586665558       -2.52942487220586
H           -0.70881555981841        0.51994553342723        2.02887173420309
H           -1.42151662222144       -0.67880749707661        0.30177598877110
H           -1.17197381693559        1.09811000345581       -0.06545481647662
H            1.01705137186309       -1.02661882286175        0.25771242740971
H            1.26556316558215        0.74343177666485       -0.10791969729172
O           -1.05461000819305        0.75626627216823        2.91844586487233
H           -1.99566084639795        0.89420009023126        2.79472060238799
10
 energy: -16.135369223170 xtb: 6.5.1 (579679a)
C           -0.81825170891820        0.13050237810417        0.07900085107375
C            0.49240947120044       -0.04666886129431        0.09989486428720
Cl           1.58367718519878       -0.72407079964154       -2.49946334810980
H           -0.52214923618454        0.51765779826014        2.19028752267497
H           -1.50885920476309       -0.68956144222197        0.21026465114617
H           -1.26261437427213        1.08691617028510       -0.15471257238939
H            0.93430543477171       -1.01032577625715        0.27878081551451
H            1.17947374838121        0.75950192025963       -0.08419078780505
O           -0.99205227267596        0.76546247729597        3.00476526938961
H           -1.90565904273734        0.88653613521058        2.73828273421409
10
 energy: -16.135595338837 xtb: 6.5.1 (579679a)
C           -0.94690515130990        0.14171907483932       -0.00811887486068
C            0.35945494366764       -0.01105558603116        0.12188447704212
Cl           1.78608760059487       -0.74750946980428       -2.34068882009640
H           -0.26585937940938        0.50329311085759        2.29993116338155
H           -1.63445998104456       -0.68419088935687        0.09970148493762
H           -1.38906681989120        1.08778748629881       -0.28358671201109
H            0.80282067066733       -0.96469756596213        0.34674861443896
H            1.04712951160136        0.80070245675280       -0.03517945956697
O           -0.85397356260050        0.74388202149823        3.03026272213328
H           -1.72494783227474        0.80601936090812        2.63195540459763
10
 energy: -16.135839087387 xtb: 6.5.1 (579679a)
C           -1.03980676595521        0.14873384014240       -0.03350688586883
C            0.26325698403052       -0.00178261677489        0.12074697652289
Cl           1.94592278651186       -0.74046920068768       -2.22705463203813
H           -0.06414271438563        0.51404408230142        2.45756893568787
H           -1.72858461508558       -0.67777262797534        0.06354878619097
H           -1.48011429115973        1.09528470688314       -0.31129804429767
H            0.70450316431987       -0.95620207822491        0.34682560111896
H            0.95358745354487        0.80977360072535       -0.02569393146589
O           -0.80642605227636        0.74364521852503        3.02895124861912
H           -1.56791594954369        0.74069507508599        2.44282194552673
10
 energy: -16.146504003573 xtb: 6.5.1 (579679a)
C           -1.33773265135790        0.20756797073507        0.02371464814237
C           -0.29554196696153       -0.09315189367187       -0.72658562574294
Cl           2.22569444295000       -0.14125946140005        0.84658131713113
H            0.69354795636999        0.30968138564950        2.18507685467976
H           -1.91871364015675       -0.55067293982025        0.52766474712026
H           -1.67534522885177        1.22587505919486        0.15251731644475
H            0.04925801402976       -1.10472312506325       -0.84353480226189
H            0.29195038379143        0.66371775239763       -1.21518482356141
O           -0.06322499627214        0.54158426583637        2.76754744455591
H           -0.78961231353857        0.61733098613774        2.14511292348605
10
 energy: -16.148022422441 xtb: 6.5.1 (579679a)
C           -1.43529723095900        0.21167582105844       -0.04222872594119
C           -0.33128403819698       -0.08126608587178       -0.70032147655524
Cl           2.31525037303333       -0.14759720277502        0.91322828297912
H            0.81516510554877        0.32784781645859        2.27722028344212
H           -2.04215757420515       -0.54803859585484        0.42798161262763
H           -1.79426046925811        1.22600318007407        0.05490431038685
H            0.03937442399457       -1.08816789031013       -0.77337263425904
H            0.28613583975833        0.67841774591172       -1.14599445703289
O           -0.00384402660348        0.55042807703454        2.77217500090548
H           -0.66880240310980        0.54664713426997        2.07931780344094
10
 energy: -16.148687113861 xtb: 6.5.1 (579679a)
C           -1.56252751978245        0.21264313582195       -0.13059916310778
C           -0.37154723000372       -0.05708938281054       -0.62646841913341
Cl           2.46231411854688       -0.17361683623569        0.97472204601564
H            0.94117961596584        0.33059357385600        2.31259890444744
H           -2.20527836239447       -0.55563625747763        0.27329463676293
H           -1.95952470782611        1.21666735625196       -0.09988346111880
H            0.03890883394949       -1.05141934697570       -0.62605714339233
H            0.28266100928991        0.71181552363078       -0.99822269206916
O            0.09104612049299        0.54868920560052        2.75406131759708
H           -0.53695187823682        0.49330302833450        2.02946397399252
