 Entering Gaussian System, Link 0=g16
 Input=calc.com
 Output=calc.log
 Initial command:
 /binaries/g16/l1.exe "/calcus/scratch/scr/30/Gau-170.inp" -scrdir="/calcus/scratch/scr/30/"
 Entering Link 1 = /binaries/g16/l1.exe PID=       172.
  
 Copyright (c) 1988-2019, Gaussian, Inc.  All Rights Reserved.
  
 This is part of the Gaussian(R) 16 program.  It is based on
 the Gaussian(R) 09 system (copyright 2009, Gaussian, Inc.),
 the Gaussian(R) 03 system (copyright 2003, Gaussian, Inc.),
 the Gaussian(R) 98 system (copyright 1998, Gaussian, Inc.),
 the Gaussian(R) 94 system (copyright 1995, Gaussian, Inc.),
 the Gaussian 92(TM) system (copyright 1992, Gaussian, Inc.),
 the Gaussian 90(TM) system (copyright 1990, Gaussian, Inc.),
 the Gaussian 88(TM) system (copyright 1988, Gaussian, Inc.),
 the Gaussian 86(TM) system (copyright 1986, Carnegie Mellon
 University), and the Gaussian 82(TM) system (copyright 1983,
 Carnegie Mellon University). Gaussian is a federally registered
 trademark of Gaussian, Inc.
  
 This software contains proprietary and confidential information,
 including trade secrets, belonging to Gaussian, Inc.
  
 This software is provided under written license and may be
 used, copied, transmitted, or stored only in accord with that
 written license.
  
 The following legend is applicable only to US Government
 contracts under FAR:
  
                    RESTRICTED RIGHTS LEGEND
  
 Use, reproduction and disclosure by the US Government is
 subject to restrictions as set forth in subparagraphs (a)
 and (c) of the Commercial Computer Software - Restricted
 Rights clause in FAR 52.227-19.
  
 Gaussian, Inc.
 340 Quinnipiac St., Bldg. 40, Wallingford CT 06492
  
  
 ---------------------------------------------------------------
 Warning -- This program may not be used in any manner that
 competes with the business of Gaussian, Inc. or will provide
 assistance to any competitor of Gaussian, Inc.  The licensee
 of this program is prohibited from giving any competitor of
 Gaussian, Inc. access to this program.  By using this program,
 the user acknowledges that Gaussian, Inc. is engaged in the
 business of creating and licensing software in the field of
 computational chemistry and represents and warrants to the
 licensee that it is not a competitor of Gaussian, Inc. and that
 it will not use this program in any manner prohibited above.
 ---------------------------------------------------------------
  

 Cite this work as:
 Gaussian 16, Revision C.01,
 M. J. Frisch, G. W. Trucks, H. B. Schlegel, G. E. Scuseria, 
 M. A. Robb, J. R. Cheeseman, G. Scalmani, V. Barone, 
 G. A. Petersson, H. Nakatsuji, X. Li, M. Caricato, A. V. Marenich, 
 J. Bloino, B. G. Janesko, R. Gomperts, B. Mennucci, H. P. Hratchian, 
 J. V. Ortiz, A. F. Izmaylov, J. L. Sonnenberg, D. Williams-Young, 
 F. Ding, F. Lipparini, F. Egidi, J. Goings, B. Peng, A. Petrone, 
 T. Henderson, D. Ranasinghe, V. G. Zakrzewski, J. Gao, N. Rega, 
 G. Zheng, W. Liang, M. Hada, M. Ehara, K. Toyota, R. Fukuda, 
 J. Hasegawa, M. Ishida, T. Nakajima, Y. Honda, O. Kitao, H. Nakai, 
 T. Vreven, K. Throssell, J. A. Montgomery, Jr., J. E. Peralta, 
 F. Ogliaro, M. J. Bearpark, J. J. Heyd, E. N. Brothers, K. N. Kudin, 
 V. N. Staroverov, T. A. Keith, R. Kobayashi, J. Normand, 
 K. Raghavachari, A. P. Rendell, J. C. Burant, S. S. Iyengar, 
 J. Tomasi, M. Cossi, J. M. Millam, M. Klene, C. Adamo, R. Cammi, 
 J. W. Ochterski, R. L. Martin, K. Morokuma, O. Farkas, 
 J. B. Foresman, and D. J. Fox, Gaussian, Inc., Wallingford CT, 2019.
 
 ******************************************
 Gaussian 16:  ES64L-G16RevC.01  3-Jul-2019
                 5-Sep-2022 
 ******************************************
 %chk=in.chk
 %nproc=1
 Will use up to    1 processors via shared memory.
 %mem=2000MB
 ------------------------
 #p opt(modredundant) AM1
 ------------------------
 1/18=120,19=15,26=1,38=1/1,3;
 2/9=110,12=2,17=6,18=5,40=1/2;
 3/5=2,25=1,41=700000,71=1/1,2,3;
 4/35=1/1;
 5/5=2,35=1,38=5/2;
 6/7=2,8=2,9=2,10=2,28=1/1;
 7//1,2,3,16;
 1/18=20,19=15,26=1/3(2);
 2/9=110/2;
 99//99;
 2/9=110/2;
 3/5=2,25=1,41=700000,71=1,135=20/1,2,3;
 4/5=5,16=3,35=1/1;
 5/5=2,35=1,38=5/2;
 7//1,2,3,16;
 1/18=20,19=15,26=1/3(-5);
 2/9=110/2;
 6/7=2,8=2,9=2,10=2,19=2,28=1/1;
 99/9=1/99;
 Leave Link    1 at Mon Sep  5 10:36:03 2022, MaxMem=   262144000 cpu:               0.0 elap:               0.0
 (Enter /binaries/g16/l101.exe)
 -----------------------
 File created by ccinput
 -----------------------
 Symbolic Z-matrix:
 Charge =  0 Multiplicity = 1
 C                     4.2918    3.6588    0. 
 H                     4.6485    2.65      0. 
 H                     4.6485    4.1632    0.8707 
 H                     4.6485    4.1632   -0.8797 
 H                     3.2218    3.6588    0. 
 
 The following ModRedundant input section has been read:
 A       1       2       3 S  10 9.4800                                        
 
 ITRead=  0  0  0  0  0
 MicOpt= -1 -1 -1 -1 -1
 NAtoms=      5 NQM=        5 NQMF=       0 NMMI=      0 NMMIF=      0
                NMic=       0 NMicF=      0.
                    Isotopes and Nuclear Properties:
 (Nuclear quadrupole moments (NQMom) in fm**2, nuclear magnetic moments (NMagM)
  in nuclear magnetons)

  Atom         1           2           3           4           5
 IAtWgt=          12           1           1           1           1
 AtmWgt=  12.0000000   1.0078250   1.0078250   1.0078250   1.0078250
 NucSpn=           0           1           1           1           1
 AtZEff=  -0.0000000  -0.0000000  -0.0000000  -0.0000000  -0.0000000
 NQMom=    0.0000000   0.0000000   0.0000000   0.0000000   0.0000000
 NMagM=    0.0000000   2.7928460   2.7928460   2.7928460   2.7928460
 AtZNuc=   6.0000000   1.0000000   1.0000000   1.0000000   1.0000000
 Leave Link  101 at Mon Sep  5 10:36:03 2022, MaxMem=   262144000 cpu:               0.1 elap:               0.1
 (Enter /binaries/g16/l103.exe)

 GradGradGradGradGradGradGradGradGradGradGradGradGradGradGradGradGradGrad
 Berny optimization.
 Initialization pass.
                           ----------------------------
                           !    Initial Parameters    !
                           ! (Angstroms and Degrees)  !
 --------------------------                            --------------------------
 ! Name  Definition              Value          Derivative Info.                !
 --------------------------------------------------------------------------------
 ! R1    R(1,2)                  1.07           estimate D2E/DX2                !
 ! R2    R(1,3)                  1.0676         estimate D2E/DX2                !
 ! R3    R(1,4)                  1.075          estimate D2E/DX2                !
 ! R4    R(1,5)                  1.07           estimate D2E/DX2                !
 ! A1    A(2,1,3)              109.5151         estimate D2E/DX2                !
 ! A2    A(2,1,4)              109.3762         estimate D2E/DX2                !
 ! A3    A(2,1,5)              109.473          estimate D2E/DX2                !
 ! A4    A(3,1,4)              109.5644         estimate D2E/DX2                !
 ! A5    A(3,1,5)              109.5186         estimate D2E/DX2                !
 ! A6    A(4,1,5)              109.3798         estimate D2E/DX2                !
 ! A7    A(1,2,3)               35.1969         Scan                            !
 ! D1    D(2,1,4,3)           -120.0525         estimate D2E/DX2                !
 ! D2    D(2,1,5,3)            120.0839         estimate D2E/DX2                !
 ! D3    D(2,1,5,4)           -119.829          estimate D2E/DX2                !
 ! D4    D(3,1,5,4)            120.0871         estimate D2E/DX2                !
 --------------------------------------------------------------------------------
 Trust Radius=3.00D-01 FncErr=1.00D-07 GrdErr=1.00D-07 EigMax=2.50D+02 EigMin=1.00D-04
 Number of optimizations in scan=  11
 Number of steps in this run=     25 maximum allowed number of steps=    100.
 GradGradGradGradGradGradGradGradGradGradGradGradGradGradGradGradGradGrad

 Leave Link  103 at Mon Sep  5 10:36:03 2022, MaxMem=   262144000 cpu:               0.0 elap:               0.0
 (Enter /binaries/g16/l202.exe)
                          Input orientation:                          
 ---------------------------------------------------------------------
 Center     Atomic      Atomic             Coordinates (Angstroms)
 Number     Number       Type             X           Y           Z
 ---------------------------------------------------------------------
      1          6           0        4.291800    3.658800    0.000000
      2          1           0        4.648500    2.650000    0.000000
      3          1           0        4.648500    4.163200    0.870700
      4          1           0        4.648500    4.163200   -0.879700
      5          1           0        3.221800    3.658800    0.000000
 ---------------------------------------------------------------------
                    Distance matrix (angstroms):
                    1          2          3          4          5
     1  C    0.000000
     2  H    1.070006   0.000000
     3  H    1.067601   1.745822   0.000000
     4  H    1.074954   1.750327   1.750400   0.000000
     5  H    1.070000   1.747327   1.745855   1.750361   0.000000
 Stoichiometry    CH4
 Framework group  C1[X(CH4)]
 Deg. of freedom     9
 Full point group                 C1      NOp   1
 Largest Abelian subgroup         C1      NOp   1
 Largest concise Abelian subgroup C1      NOp   1
                         Standard orientation:                         
 ---------------------------------------------------------------------
 Center     Atomic      Atomic             Coordinates (Angstroms)
 Number     Number       Type             X           Y           Z
 ---------------------------------------------------------------------
      1          6           0       -0.000767    0.000001    0.000472
      2          1           0       -0.325680   -0.869163   -0.532348
      3          1           0       -0.412253   -0.010991    0.985525
      4          1           0        1.072605    0.002075    0.058743
      5          1           0       -0.330072    0.878070   -0.514750
 ---------------------------------------------------------------------
 Rotational constants (GHZ):         164.4303219         163.9529333         163.7655362
 Leave Link  202 at Mon Sep  5 10:36:03 2022, MaxMem=   262144000 cpu:               0.0 elap:               0.0
 (Enter /binaries/g16/l301.exe)
 Standard basis: VSTO-6G (5D, 7F)
 Ernie: Thresh=  0.10000D-02 Tol=  0.10000D-05 Strict=F.
  NNHCO=     0 NNPyr=     0 NCTC=     0               EPep=         0.000000000
    EC=         6.919995759  ECS=         0.582582337   EG=         0.068208026
   EHC=         0.000000000  EAt=        -6.115142680  AtH=         0.604449838
 EPDDG=         0.000000000  ECC=         7.570786122 EAtT=         6.719592518
 There are     8 symmetry adapted cartesian basis functions of A   symmetry.
 There are     8 symmetry adapted basis functions of A   symmetry.
     8 basis functions,    48 primitive gaussians,     8 cartesian basis functions
     4 alpha electrons        4 beta electrons
       nuclear repulsion energy        14.2903786404 Hartrees.
 IExCor=    0 DFT=F Ex=HF Corr=None ExCW=0 ScaHFX=  1.000000
 ScaDFX=  1.000000  1.000000  1.000000  1.000000 ScalE2=  1.000000  1.000000
 IRadAn=      5 IRanWt=     -1 IRanGd=            0 ICorTp=0 IEmpDi=  4
 Integral buffers will be    131072 words long.
 Regular integral format.
 Two-electron integral symmetry is turned off.
 Leave Link  301 at Mon Sep  5 10:36:03 2022, MaxMem=   262144000 cpu:               0.0 elap:               0.0
 (Enter /binaries/g16/l302.exe)
 Do NDO integrals.
 NPDir=0 NMtPBC=     1 NCelOv=     1 NCel=       1 NClECP=     1 NCelD=      1
         NCelK=      1 NCelE2=     1 NClLst=     1 CellRange=     0.0.
 One-electron integrals computed using PRISM.
 NBasis=     8 RedAO= F EigKep=  0.00D+00  NBF=     8
 NBsUse=     8 1.00D-04 EigRej=  0.00D+00 NBFU=     8
 Leave Link  302 at Mon Sep  5 10:36:03 2022, MaxMem=   262144000 cpu:               0.0 elap:               0.0
 (Enter /binaries/g16/l303.exe)
 DipDrv:  MaxL=1.
 Leave Link  303 at Mon Sep  5 10:36:03 2022, MaxMem=   262144000 cpu:               0.0 elap:               0.0
 (Enter /binaries/g16/l401.exe)
 Simple Huckel Guess.
 JPrj=0 DoOrth=F DoCkMO=F.
 Leave Link  401 at Mon Sep  5 10:36:03 2022, MaxMem=   262144000 cpu:               0.0 elap:               0.0
 (Enter /binaries/g16/l502.exe)
 Keep J ints in memory in canonical form, NReq=859348.
 FoFCou: FMM=F IPFlag=           0 FMFlag=           0 FMFlg1=           0
         NFxFlg=           0 DoJE=F BraDBF=F KetDBF=F FulRan=T
         wScrn=  0.000000 ICntrl=       600 IOpCl=  2 I1Cent=           0 NGrid=           0
         NMat0=    1 NMatS0=     14 NMatT0=    0 NMatD0=    1 NMtDS0=    0 NMtDT0=    0
 Symmetry not used in FoFCou.
 Two-electron integral symmetry not used.
 Closed shell SCF:
 Using DIIS extrapolation, IDIIS=  1040.
 Overlap will be assumed to be unity.
 NGot=   262144000 LenX=   262083483 LenY=   262082601
 Requested convergence on RMS density matrix=1.00D-08 within 128 cycles.
 Requested convergence on MAX density matrix=1.00D-06.
 Requested convergence on             energy=1.00D-06.
 No special actions if energy rises.

 Cycle   1  Pass 1  IDiag  1:
 E= 0.452729332967827E-01
 DIIS: error= 4.04D-02 at cycle   1 NSaved=   1.
 NSaved= 1 IEnMin= 1 EnMin= 0.452729332967827E-01 IErMin= 1 ErrMin= 4.04D-02
 ErrMax= 4.04D-02  0.00D+00 EMaxC= 1.00D-01 BMatC= 2.62D-02 BMatP= 2.62D-02
 IDIUse=3 WtCom= 5.96D-01 WtEn= 4.04D-01
 Coeff-Com:  0.100D+01
 Coeff-En:   0.100D+01
 Coeff:      0.100D+01
 GapD=    2.000 DampG=2.000 DampE=0.500 DampFc=1.0000 IDamp=-1.
 RMSDP=2.26D-02 MaxDP=1.27D-01              OVMax= 0.00D+00

 Cycle   2  Pass 1  IDiag  1:
 E=-0.609907068839100E-02 Delta-E=       -0.051372003985 Rises=F Damp=F
 DIIS: error= 9.25D-03 at cycle   2 NSaved=   2.
 NSaved= 2 IEnMin= 2 EnMin=-0.609907068839100E-02 IErMin= 2 ErrMin= 9.25D-03
 ErrMax= 9.25D-03  0.00D+00 EMaxC= 1.00D-01 BMatC= 1.39D-03 BMatP= 2.62D-02
 IDIUse=3 WtCom= 9.08D-01 WtEn= 9.25D-02
 Coeff-Com: -0.298D+00 0.130D+01
 Coeff-En:   0.000D+00 0.100D+01
 Coeff:     -0.270D+00 0.127D+01
 RMSDP=6.60D-03 MaxDP=3.57D-02 DE=-5.14D-02 OVMax= 0.00D+00

 Cycle   3  Pass 1  IDiag  3:
 E=-0.894858455685110E-02 Delta-E=       -0.002849513868 Rises=F Damp=F
 DIIS: error= 3.66D-04 at cycle   3 NSaved=   3.
 NSaved= 3 IEnMin= 3 EnMin=-0.894858455685110E-02 IErMin= 3 ErrMin= 3.66D-04
 ErrMax= 3.66D-04  0.00D+00 EMaxC= 1.00D-01 BMatC= 2.83D-06 BMatP= 1.39D-03
 IDIUse=3 WtCom= 9.96D-01 WtEn= 3.66D-03
 Coeff-Com:  0.291D+00-0.131D+01 0.202D+01
 Coeff-En:   0.000D+00 0.000D+00 0.100D+01
 Coeff:      0.290D+00-0.131D+01 0.202D+01
 Gap=     0.672 Goal=   None    Shift=    0.000
 RMSDP=7.89D-04 MaxDP=2.57D-03 DE=-2.85D-03 OVMax= 2.55D-03

 Cycle   4  Pass 1  IDiag  3:
 E=-0.896292349164618E-02 Delta-E=       -0.000014338935 Rises=F Damp=F
 DIIS: error= 1.48D-05 at cycle   4 NSaved=   4.
 NSaved= 4 IEnMin= 4 EnMin=-0.896292349164618E-02 IErMin= 4 ErrMin= 1.48D-05
 ErrMax= 1.48D-05  0.00D+00 EMaxC= 1.00D-01 BMatC= 2.69D-09 BMatP= 2.83D-06
 IDIUse=1 WtCom= 1.00D+00 WtEn= 0.00D+00
 Coeff-Com: -0.362D-02 0.179D-01-0.327D-01 0.102D+01
 Coeff:     -0.362D-02 0.179D-01-0.327D-01 0.102D+01
 Gap=     0.673 Goal=   None    Shift=    0.000
 RMSDP=9.48D-06 MaxDP=5.05D-05 DE=-1.43D-05 OVMax= 5.17D-05

 Cycle   5  Pass 1  IDiag  3:
 E=-0.896292896141659E-02 Delta-E=       -0.000000005470 Rises=F Damp=F
 DIIS: error= 5.64D-07 at cycle   5 NSaved=   5.
 NSaved= 5 IEnMin= 5 EnMin=-0.896292896141659E-02 IErMin= 5 ErrMin= 5.64D-07
 ErrMax= 5.64D-07  0.00D+00 EMaxC= 1.00D-01 BMatC= 7.88D-12 BMatP= 2.69D-09
 IDIUse=1 WtCom= 1.00D+00 WtEn= 0.00D+00
 Coeff-Com:  0.375D-02-0.175D-01 0.288D-01-0.362D+00 0.135D+01
 Coeff:      0.375D-02-0.175D-01 0.288D-01-0.362D+00 0.135D+01
 Gap=     0.673 Goal=   None    Shift=    0.000
 RMSDP=7.38D-07 MaxDP=1.62D-06 DE=-5.47D-09 OVMax= 0.00D+00

 Cycle   6  Pass 1  IDiag  3:
 E=-0.896292898503859E-02 Delta-E=       -0.000000000024 Rises=F Damp=F
 DIIS: error= 1.82D-07 at cycle   6 NSaved=   6.
 NSaved= 6 IEnMin= 6 EnMin=-0.896292898503859E-02 IErMin= 6 ErrMin= 1.82D-07
 ErrMax= 1.82D-07  0.00D+00 EMaxC= 1.00D-01 BMatC= 6.70D-13 BMatP= 7.88D-12
 IDIUse=1 WtCom= 1.00D+00 WtEn= 0.00D+00
 Coeff-Com: -0.756D-03 0.382D-02-0.715D-02 0.231D+00-0.933D+00 0.171D+01
 Coeff:     -0.756D-03 0.382D-02-0.715D-02 0.231D+00-0.933D+00 0.171D+01
 Gap=     0.673 Goal=   None    Shift=    0.000
 RMSDP=2.69D-07 MaxDP=7.65D-07 DE=-2.36D-11 OVMax= 7.82D-07

 Cycle   7  Pass 1  IDiag  3:
 E=-0.896292898716844E-02 Delta-E=       -0.000000000002 Rises=F Damp=F
 DIIS: error= 3.48D-08 at cycle   7 NSaved=   7.
 NSaved= 7 IEnMin= 7 EnMin=-0.896292898716844E-02 IErMin= 7 ErrMin= 3.48D-08
 ErrMax= 3.48D-08  0.00D+00 EMaxC= 1.00D-01 BMatC= 1.69D-14 BMatP= 6.70D-13
 IDIUse=1 WtCom= 1.00D+00 WtEn= 0.00D+00
 Coeff-Com:  0.251D-03-0.131D-02 0.260D-02-0.101D+00 0.409D+00-0.756D+00
 Coeff-Com:  0.145D+01
 Coeff:      0.251D-03-0.131D-02 0.260D-02-0.101D+00 0.409D+00-0.756D+00
 Coeff:      0.145D+01
 Gap=     0.673 Goal=   None    Shift=    0.000
 RMSDP=3.18D-08 MaxDP=1.65D-07 DE=-2.13D-12 OVMax= 1.68D-07

 Cycle   8  Pass 1  IDiag  3:
 E=-0.896292898719508E-02 Delta-E=       -0.000000000000 Rises=F Damp=F
 DIIS: error= 1.05D-08 at cycle   8 NSaved=   8.
 NSaved= 8 IEnMin= 8 EnMin=-0.896292898719508E-02 IErMin= 8 ErrMin= 1.05D-08
 ErrMax= 1.05D-08  0.00D+00 EMaxC= 1.00D-01 BMatC= 1.73D-15 BMatP= 1.69D-14
 IDIUse=1 WtCom= 1.00D+00 WtEn= 0.00D+00
 Coeff-Com: -0.584D-05 0.590D-04-0.193D-03 0.170D-01-0.688D-01 0.127D+00
 Coeff-Com: -0.359D+00 0.128D+01
 Coeff:     -0.584D-05 0.590D-04-0.193D-03 0.170D-01-0.688D-01 0.127D+00
 Coeff:     -0.359D+00 0.128D+01
 Gap=     0.673 Goal=   None    Shift=    0.000
 RMSDP=7.69D-09 MaxDP=4.10D-08 DE=-2.66D-14 OVMax= 4.19D-08

 Cycle   9  Pass 2  IDiag  1:
 SCF Done:  E(RAM1) = -0.896292898720E-02 A.U. after    9 cycles
            NFock=  8  Conv=0.77D-08     -V/T= 0.9991
 KE=-9.923828799827D+00 PE=-1.351118057988D+01 EE= 9.135667810355D+00
 Leave Link  502 at Mon Sep  5 10:36:03 2022, MaxMem=   262144000 cpu:               0.0 elap:               0.0
 (Enter /binaries/g16/l601.exe)
 Copying SCF densities to generalized density rwf, IOpCl= 0 IROHF=0.

 **********************************************************************

            Population analysis using the SCF Density.

 **********************************************************************

 Orbital symmetries:
       Occupied  (A) (A) (A) (A)
       Virtual   (A) (A) (A) (A)
 The electronic state is 1-A.
 Alpha  occ. eigenvalues --   -1.09135  -0.49733  -0.49693  -0.49623
 Alpha virt. eigenvalues --    0.17640   0.17713   0.17752   0.20334
          Condensed to atoms (all electrons):
               1          2          3          4          5
     1  C    4.258397   0.000000   0.000000   0.000000   0.000000
     2  H    0.000000   0.935473   0.000000   0.000000   0.000000
     3  H    0.000000   0.000000   0.935243   0.000000   0.000000
     4  H    0.000000   0.000000   0.000000   0.935423   0.000000
     5  H    0.000000   0.000000   0.000000   0.000000   0.935464
 Mulliken charges:
               1
     1  C   -0.258397
     2  H    0.064527
     3  H    0.064757
     4  H    0.064577
     5  H    0.064536
 Sum of Mulliken charges =  -0.00000
 Mulliken charges with hydrogens summed into heavy atoms:
               1
     1  C   -0.000000
 Charge=             -0.0000 electrons
 Dipole moment (field-independent basis, Debye):
    X=              0.0008    Y=             -0.0000    Z=             -0.0007  Tot=              0.0011
 N-N= 1.429037864037D+01 E-N=-1.351118053997D+01  KE=-9.923828799827D+00
 Leave Link  601 at Mon Sep  5 10:36:03 2022, MaxMem=   262144000 cpu:               0.0 elap:               0.0
 (Enter /binaries/g16/l701.exe)
 ... and contract with generalized density number  0.
 Compute integral first derivatives.
 Leave Link  701 at Mon Sep  5 10:36:03 2022, MaxMem=   262144000 cpu:               0.0 elap:               0.0
 (Enter /binaries/g16/l702.exe)
 L702 exits ... SP integral derivatives will be done elsewhere.
 Leave Link  702 at Mon Sep  5 10:36:03 2022, MaxMem=   262144000 cpu:               0.0 elap:               0.0
 (Enter /binaries/g16/l703.exe)
 Integral derivatives from FoFJK, PRISM(SPDF).
 Compute integral first derivatives, UseDBF=F ICtDFT=           0.
 Calling FoFJK, ICntrl=      2127 FMM=F ISym2X=0 I1Cent= 0 IOpClX= 0 NMat=1 NMatS=1 NMatT=0.
 FoFJK:  IHMeth= 8 ICntrl=    2127 DoSepK=F KAlg= 0 I1Cent=           0 FoldK=F
 IRaf=         0 NMat=       1 IRICut=       1 DoRegI=T DoRafI=F ISym2E= 0 IDoP0=3 IntGTp=3.
 FoFCou: FMM=F IPFlag=           0 FMFlag=      100000 FMFlg1=         800
         NFxFlg=           0 DoJE=F BraDBF=F KetDBF=F FulRan=T
         wScrn=  0.000000 ICntrl=      2127 IOpCl=  0 I1Cent=           0 NGrid=           0
         NMat0=    1 NMatS0=      1 NMatT0=    0 NMatD0=    1 NMtDS0=    0 NMtDT0=    0
 Symmetry not used in FoFCou.
 Leave Link  703 at Mon Sep  5 10:36:03 2022, MaxMem=   262144000 cpu:               0.0 elap:               0.0
 (Enter /binaries/g16/l716.exe)
 Dipole        = 3.24043308D-04-2.85092585D-06-2.93570403D-04
 ***** Axes restored to original set *****
 -------------------------------------------------------------------
 Center     Atomic                   Forces (Hartrees/Bohr)
 Number     Number              X              Y              Z
 -------------------------------------------------------------------
      1        6           0.000515854    0.000715891   -0.004261023
      2        1           0.011382394   -0.032128215   -0.000037722
      3        1           0.012049670    0.017045580    0.029095296
      4        1           0.010137481    0.014341509   -0.024758843
      5        1          -0.034085398    0.000025235   -0.000037709
 -------------------------------------------------------------------
 Cartesian Forces:  Max     0.034085398 RMS     0.017409316
 Leave Link  716 at Mon Sep  5 10:36:03 2022, MaxMem=   262144000 cpu:               0.0 elap:               0.0
 (Enter /binaries/g16/l103.exe)

 GradGradGradGradGradGradGradGradGradGradGradGradGradGradGradGradGradGrad
 Berny optimization.
 FormGI is forming the generalized inverse of G from B-inverse, IUseBI=4.
 Internal  Forces:  Max     0.035762377 RMS     0.017372856
 Search for a local minimum.
 Step number   1 out of a maximum of   25 on scan point     1 out of    11
 All quantities printed in internal units (Hartrees-Bohrs-Radians)
 RMS Force = .17981D-01 SwitMx=.10000D-02 MixMth= 1
 Mixed Optimization -- RFO/linear search
 Second derivative matrix not updated -- first step.
 The second derivative matrix:
                          R1        R2        R3        R4        A1
           R1           0.37229
           R2           0.00000   0.37535
           R3           0.00000   0.00000   0.36611
           R4           0.00000   0.00000   0.00000   0.37230
           A1           0.00000   0.00000   0.00000   0.00000   0.16000
           A2           0.00000   0.00000   0.00000   0.00000   0.00000
           A3           0.00000   0.00000   0.00000   0.00000   0.00000
           A4           0.00000   0.00000   0.00000   0.00000   0.00000
           A5           0.00000   0.00000   0.00000   0.00000   0.00000
           A6           0.00000   0.00000   0.00000   0.00000   0.00000
           A7           0.00000   0.00000   0.00000   0.00000   0.00000
           D1           0.00000   0.00000   0.00000   0.00000   0.00000
           D2           0.00000   0.00000   0.00000   0.00000   0.00000
           D3           0.00000   0.00000   0.00000   0.00000   0.00000
           D4           0.00000   0.00000   0.00000   0.00000   0.00000
                          A2        A3        A4        A5        A6
           A2           0.16000
           A3           0.00000   0.16000
           A4           0.00000   0.00000   0.16000
           A5           0.00000   0.00000   0.00000   0.16000
           A6           0.00000   0.00000   0.00000   0.00000   0.16000
           A7           0.00000   0.00000   0.00000   0.00000   0.00000
           D1           0.00000   0.00000   0.00000   0.00000   0.00000
           D2           0.00000   0.00000   0.00000   0.00000   0.00000
           D3           0.00000   0.00000   0.00000   0.00000   0.00000
           D4           0.00000   0.00000   0.00000   0.00000   0.00000
                          A7        D1        D2        D3        D4
           A7           0.16000
           D1           0.00000   0.00434
           D2           0.00000   0.00000   0.00499
           D3           0.00000   0.00000   0.00000   0.00499
           D4           0.00000   0.00000   0.00000   0.00000   0.00499
 ITU=  0
     Eigenvalues ---    0.05901   0.08391   0.12942   0.16000   0.25188
     Eigenvalues ---    0.36611   0.37230   0.373831000.000001000.00000
     Eigenvalues --- 1000.000001000.000001000.000001000.000001000.00000
 RFO step:  Lambda=-1.18001134D-02 EMin= 5.90084353D-02
 Linear search not attempted -- first point.
 Iteration  1 RMS(Cart)=  0.04527869 RMS(Int)=  0.00003771
 Iteration  2 RMS(Cart)=  0.00002442 RMS(Int)=  0.00000669
 Iteration  3 RMS(Cart)=  0.00000000 RMS(Int)=  0.00000669
 Iteration  1 RMS(Cart)=  0.00000170 RMS(Int)=  0.00000590
 Iteration  2 RMS(Cart)=  0.00000150 RMS(Int)=  0.00000620
 Iteration  3 RMS(Cart)=  0.00000132 RMS(Int)=  0.00000690
 Iteration  4 RMS(Cart)=  0.00000116 RMS(Int)=  0.00000778
 Iteration  5 RMS(Cart)=  0.00000102 RMS(Int)=  0.00000868
 Iteration  6 RMS(Cart)=  0.00000090 RMS(Int)=  0.00000956
 ITry= 1 IFail=0 DXMaxC= 8.86D-02 DCOld= 1.00D+10 DXMaxT= 3.00D-01 DXLimC= 3.00D+00 Rises=F
 Variable       Old X    -DE/DX   Delta X   Delta X   Delta X     New X
                                 (Linear)    (Quad)   (Total)
    R1        2.02202   0.03413   0.00000   0.08892   0.08890   2.11092
    R2        2.01747   0.03576   0.00000   0.09231   0.09233   2.10981
    R3        2.03137   0.03036   0.00000   0.08032   0.08032   2.11169
    R4        2.02201   0.03409   0.00000   0.08874   0.08874   2.11075
    A1        1.91140   0.00007   0.00000   0.00126   0.00124   1.91264
    A2        1.90898  -0.00001   0.00000  -0.00015  -0.00014   1.90883
    A3        1.91066  -0.00001   0.00000   0.00027   0.00027   1.91094
    A4        1.91226  -0.00015   0.00000  -0.00165  -0.00165   1.91061
    A5        1.91146   0.00006   0.00000   0.00033   0.00034   1.91180
    A6        1.90904   0.00005   0.00000  -0.00006  -0.00007   1.90897
    A7        0.61430   0.00026   0.00000   0.00000  -0.00001   0.61429
    D1       -2.09531   0.00002   0.00000  -0.00044  -0.00043  -2.09574
    D2        2.09586   0.00012   0.00000   0.00191   0.00190   2.09776
    D3       -2.09141  -0.00000   0.00000   0.00005   0.00005  -2.09136
    D4        2.09592  -0.00012   0.00000  -0.00186  -0.00185   2.09406
         Item               Value     Threshold  Converged?
 Maximum Force            0.035432     0.000450     NO 
 RMS     Force            0.017981     0.000300     NO 
 Maximum Displacement     0.088638     0.001800     NO 
 RMS     Displacement     0.045279     0.001200     NO 
 Predicted change in Energy=-6.081585D-03
 Lowest energy point so far.  Saving SCF results.
 GradGradGradGradGradGradGradGradGradGradGradGradGradGradGradGradGradGrad

 Leave Link  103 at Mon Sep  5 10:36:03 2022, MaxMem=   262144000 cpu:               0.0 elap:               0.0
 (Enter /binaries/g16/l202.exe)
                          Input orientation:                          
 ---------------------------------------------------------------------
 Center     Atomic      Atomic             Coordinates (Angstroms)
 Number     Number       Type             X           Y           Z
 ---------------------------------------------------------------------
      1          6           0        4.291854    3.658717   -0.000781
      2          1           0        4.664272    2.605576   -0.001370
      3          1           0        4.665139    4.187188    0.909089
      4          1           0        4.662939    4.183533   -0.914882
      5          1           0        3.174895    3.658985   -0.001056
 ---------------------------------------------------------------------
                    Distance matrix (angstroms):
                    1          2          3          4          5
     1  C    0.000000
     2  H    1.117050   0.000000
     3  H    1.116462   1.824948   0.000000
     4  H    1.117459   1.823309   1.823976   0.000000
     5  H    1.116960   1.824258   1.824333   1.823322   0.000000
 Stoichiometry    CH4
 Framework group  C1[X(CH4)]
 Deg. of freedom     9
 Full point group                 C1      NOp   1
 RotChk:  IX=0 Diff= 1.79D+00
 Largest Abelian subgroup         C1      NOp   1
 Largest concise Abelian subgroup C1      NOp   1
                         Standard orientation:                         
 ---------------------------------------------------------------------
 Center     Atomic      Atomic             Coordinates (Angstroms)
 Number     Number       Type             X           Y           Z
 ---------------------------------------------------------------------
      1          6           0       -0.000308   -0.000173   -0.000369
      2          1           0        0.788319   -0.605166   -0.510126
      3          1           0       -0.997628   -0.476778   -0.157500
      4          1           0        0.220394    0.049727    1.093941
      5          1           0       -0.009235    1.033255   -0.424099
 ---------------------------------------------------------------------
 Rotational constants (GHZ):         150.8029286         150.7242243         150.6324259
 Leave Link  202 at Mon Sep  5 10:36:03 2022, MaxMem=   262144000 cpu:               0.0 elap:               0.0
 (Enter /binaries/g16/l301.exe)
 Standard basis: VSTO-6G (5D, 7F)
 Ernie: Thresh=  0.10000D-02 Tol=  0.10000D-05 Strict=F.
  NNHCO=     0 NNPyr=     0 NCTC=     0               EPep=         0.000000000
    EC=         6.766723599  ECS=         0.500979579   EG=         0.066343124
   EHC=         0.000000000  EAt=        -6.115142680  AtH=         0.604449838
 EPDDG=         0.000000000  ECC=         7.334046301 EAtT=         6.719592518
 There are     8 symmetry adapted cartesian basis functions of A   symmetry.
 There are     8 symmetry adapted basis functions of A   symmetry.
     8 basis functions,    48 primitive gaussians,     8 cartesian basis functions
     4 alpha electrons        4 beta electrons
       nuclear repulsion energy        14.0536388196 Hartrees.
 IExCor=    0 DFT=F Ex=HF Corr=None ExCW=0 ScaHFX=  1.000000
 ScaDFX=  1.000000  1.000000  1.000000  1.000000 ScalE2=  1.000000  1.000000
 IRadAn=      5 IRanWt=     -1 IRanGd=            0 ICorTp=0 IEmpDi=  4
 Integral buffers will be    131072 words long.
 Regular integral format.
 Two-electron integral symmetry is turned off.
 Leave Link  301 at Mon Sep  5 10:36:03 2022, MaxMem=   262144000 cpu:               0.0 elap:               0.0
 (Enter /binaries/g16/l302.exe)
 Do NDO integrals.
 NPDir=0 NMtPBC=     1 NCelOv=     1 NCel=       1 NClECP=     1 NCelD=      1
         NCelK=      1 NCelE2=     1 NClLst=     1 CellRange=     0.0.
 One-electron integrals computed using PRISM.
 NBasis=     8 RedAO= F EigKep=  0.00D+00  NBF=     8
 NBsUse=     8 1.00D-04 EigRej=  0.00D+00 NBFU=     8
 Leave Link  302 at Mon Sep  5 10:36:03 2022, MaxMem=   262144000 cpu:               0.0 elap:               0.0
 (Enter /binaries/g16/l303.exe)
 DipDrv:  MaxL=1.
 Leave Link  303 at Mon Sep  5 10:36:03 2022, MaxMem=   262144000 cpu:               0.0 elap:               0.0
 (Enter /binaries/g16/l401.exe)
 Initial guess from the checkpoint file:  "in.chk"
 B after Tr=     0.000000    0.000000   -0.000000
         Rot=    0.774573   -0.152401    0.592787   -0.159419 Ang= -78.47 deg.
 Guess basis will be translated and rotated to current coordinates.
 JPrj=0 DoOrth=T DoCkMO=T.
 Leave Link  401 at Mon Sep  5 10:36:03 2022, MaxMem=   262144000 cpu:               0.0 elap:               0.0
 (Enter /binaries/g16/l502.exe)
 Keep J ints in memory in canonical form, NReq=859348.
 FoFCou: FMM=F IPFlag=           0 FMFlag=           0 FMFlg1=           0
         NFxFlg=           0 DoJE=F BraDBF=F KetDBF=F FulRan=T
         wScrn=  0.000000 ICntrl=       600 IOpCl=  2 I1Cent=           0 NGrid=           0
         NMat0=    1 NMatS0=     14 NMatT0=    0 NMatD0=    1 NMtDS0=    0 NMtDT0=    0
 Symmetry not used in FoFCou.
 Two-electron integral symmetry not used.
 Closed shell SCF:
 Using DIIS extrapolation, IDIIS=  1040.
 Overlap will be assumed to be unity.
 NGot=   262144000 LenX=   262083483 LenY=   262082601
 Requested convergence on RMS density matrix=1.00D-08 within 128 cycles.
 Requested convergence on MAX density matrix=1.00D-06.
 Requested convergence on             energy=1.00D-06.
 No special actions if energy rises.

 Cycle   1  Pass 1  IDiag  1:
 E=-0.135734150237052E-01
 DIIS: error= 3.33D-03 at cycle   1 NSaved=   1.
 NSaved= 1 IEnMin= 1 EnMin=-0.135734150237052E-01 IErMin= 1 ErrMin= 3.33D-03
 ErrMax= 3.33D-03  0.00D+00 EMaxC= 1.00D-01 BMatC= 1.72D-04 BMatP= 1.72D-04
 IDIUse=3 WtCom= 9.67D-01 WtEn= 3.33D-02
 Coeff-Com:  0.100D+01
 Coeff-En:   0.100D+01
 Coeff:      0.100D+01
 GapD=    2.000 DampG=2.000 DampE=1.000 DampFc=2.0000 IDamp=-1.
 RMSDP=1.90D-03 MaxDP=1.02D-02              OVMax= 0.00D+00

 Cycle   2  Pass 1  IDiag  3:
 E=-0.139206148559037E-01 Delta-E=       -0.000347199832 Rises=F Damp=F
 DIIS: error= 7.64D-04 at cycle   2 NSaved=   2.
 NSaved= 2 IEnMin= 2 EnMin=-0.139206148559037E-01 IErMin= 2 ErrMin= 7.64D-04
 ErrMax= 7.64D-04  0.00D+00 EMaxC= 1.00D-01 BMatC= 9.68D-06 BMatP= 1.72D-04
 IDIUse=3 WtCom= 9.92D-01 WtEn= 7.64D-03
 Coeff-Com: -0.304D+00 0.130D+01
 Coeff-En:   0.000D+00 0.100D+01
 Coeff:     -0.302D+00 0.130D+01
 Gap=     0.658 Goal=   None    Shift=    0.000
 RMSDP=6.29D-04 MaxDP=3.03D-03 DE=-3.47D-04 OVMax= 3.12D-03

 Cycle   3  Pass 1  IDiag  3:
 E=-0.139431664522274E-01 Delta-E=       -0.000022551596 Rises=F Damp=F
 DIIS: error= 7.01D-05 at cycle   3 NSaved=   3.
 NSaved= 3 IEnMin= 3 EnMin=-0.139431664522274E-01 IErMin= 3 ErrMin= 7.01D-05
 ErrMax= 7.01D-05  0.00D+00 EMaxC= 1.00D-01 BMatC= 8.45D-08 BMatP= 9.68D-06
 IDIUse=1 WtCom= 1.00D+00 WtEn= 0.00D+00
 Coeff-Com:  0.275D+00-0.119D+01 0.192D+01
 Coeff:      0.275D+00-0.119D+01 0.192D+01
 Gap=     0.658 Goal=   None    Shift=    0.000
 RMSDP=1.49D-04 MaxDP=4.98D-04 DE=-2.26D-05 OVMax= 4.98D-04

 Cycle   4  Pass 1  IDiag  3:
 E=-0.139436579630434E-01 Delta-E=       -0.000000491511 Rises=F Damp=F
 DIIS: error= 8.04D-06 at cycle   4 NSaved=   4.
 NSaved= 4 IEnMin= 4 EnMin=-0.139436579630434E-01 IErMin= 4 ErrMin= 8.04D-06
 ErrMax= 8.04D-06  0.00D+00 EMaxC= 1.00D-01 BMatC= 7.88D-10 BMatP= 8.45D-08
 IDIUse=1 WtCom= 1.00D+00 WtEn= 0.00D+00
 Coeff-Com: -0.232D+00 0.101D+01-0.163D+01 0.185D+01
 Coeff:     -0.232D+00 0.101D+01-0.163D+01 0.185D+01
 Gap=     0.658 Goal=   None    Shift=    0.000
 RMSDP=1.36D-05 MaxDP=3.28D-05 DE=-4.92D-07 OVMax= 4.81D-05

 Cycle   5  Pass 1  IDiag  3:
 E=-0.139436623191607E-01 Delta-E=       -0.000000004356 Rises=F Damp=F
 DIIS: error= 4.74D-07 at cycle   5 NSaved=   5.
 NSaved= 5 IEnMin= 5 EnMin=-0.139436623191607E-01 IErMin= 5 ErrMin= 4.74D-07
 ErrMax= 4.74D-07  0.00D+00 EMaxC= 1.00D-01 BMatC= 5.44D-12 BMatP= 7.88D-10
 IDIUse=1 WtCom= 1.00D+00 WtEn= 0.00D+00
 Coeff-Com:  0.120D+00-0.524D+00 0.844D+00-0.970D+00 0.153D+01
 Coeff:      0.120D+00-0.524D+00 0.844D+00-0.970D+00 0.153D+01
 Gap=     0.658 Goal=   None    Shift=    0.000
 RMSDP=8.99D-07 MaxDP=2.20D-06 DE=-4.36D-09 OVMax= 2.79D-06

 Cycle   6  Pass 1  IDiag  3:
 E=-0.139436623436939E-01 Delta-E=       -0.000000000025 Rises=F Damp=F
 DIIS: error= 9.18D-08 at cycle   6 NSaved=   6.
 NSaved= 6 IEnMin= 6 EnMin=-0.139436623436939E-01 IErMin= 6 ErrMin= 9.18D-08
 ErrMax= 9.18D-08  0.00D+00 EMaxC= 1.00D-01 BMatC= 1.48D-13 BMatP= 5.44D-12
 IDIUse=1 WtCom= 1.00D+00 WtEn= 0.00D+00
 Coeff-Com: -0.406D-01 0.176D+00-0.284D+00 0.327D+00-0.558D+00 0.138D+01
 Coeff:     -0.406D-01 0.176D+00-0.284D+00 0.327D+00-0.558D+00 0.138D+01
 Gap=     0.658 Goal=   None    Shift=    0.000
 RMSDP=1.21D-07 MaxDP=3.46D-07 DE=-2.45D-11 OVMax= 0.00D+00

 Cycle   7  Pass 1  IDiag  3:
 E=-0.139436623441842E-01 Delta-E=       -0.000000000000 Rises=F Damp=F
 DIIS: error= 2.96D-08 at cycle   7 NSaved=   7.
 NSaved= 7 IEnMin= 7 EnMin=-0.139436623441842E-01 IErMin= 7 ErrMin= 2.96D-08
 ErrMax= 2.96D-08  0.00D+00 EMaxC= 1.00D-01 BMatC= 9.09D-15 BMatP= 1.48D-13
 IDIUse=1 WtCom= 1.00D+00 WtEn= 0.00D+00
 Coeff-Com:  0.371D-03-0.166D-02 0.269D-02-0.280D-02 0.443D-02-0.120D+00
 Coeff-Com:  0.112D+01
 Coeff:      0.371D-03-0.166D-02 0.269D-02-0.280D-02 0.443D-02-0.120D+00
 Coeff:      0.112D+01
 Gap=     0.658 Goal=   None    Shift=    0.000
 RMSDP=2.25D-08 MaxDP=8.64D-08 DE=-4.90D-13 OVMax= 0.00D+00

 Cycle   8  Pass 1  IDiag  3:
 E=-0.139436623441913E-01 Delta-E=       -0.000000000000 Rises=F Damp=F
 DIIS: error= 2.31D-09 at cycle   8 NSaved=   8.
 NSaved= 8 IEnMin= 8 EnMin=-0.139436623441913E-01 IErMin= 8 ErrMin= 2.31D-09
 ErrMax= 2.31D-09  0.00D+00 EMaxC= 1.00D-01 BMatC= 1.72D-16 BMatP= 9.09D-15
 IDIUse=1 WtCom= 1.00D+00 WtEn= 0.00D+00
 Coeff-Com:  0.105D-03-0.429D-03 0.677D-03-0.996D-03 0.255D-02 0.556D-01
 Coeff-Com: -0.740D+00 0.168D+01
 Coeff:      0.105D-03-0.429D-03 0.677D-03-0.996D-03 0.255D-02 0.556D-01
 Coeff:     -0.740D+00 0.168D+01
 Gap=     0.658 Goal=   None    Shift=    0.000
 RMSDP=6.03D-09 MaxDP=1.43D-08 DE=-7.11D-15 OVMax= 3.06D-08

 Cycle   9  Pass 2  IDiag  1:
 SCF Done:  E(RAM1) = -0.139436623442E-01 A.U. after    9 cycles
            NFock=  8  Conv=0.60D-08     -V/T= 0.9986
 KE=-9.870939331794D+00 PE=-1.322058132821D+01 EE= 9.023938178050D+00
 Leave Link  502 at Mon Sep  5 10:36:03 2022, MaxMem=   262144000 cpu:               0.0 elap:               0.0
 (Enter /binaries/g16/l701.exe)
 ... and contract with generalized density number  0.
 Compute integral first derivatives.
 Leave Link  701 at Mon Sep  5 10:36:03 2022, MaxMem=   262144000 cpu:               0.0 elap:               0.0
 (Enter /binaries/g16/l702.exe)
 L702 exits ... SP integral derivatives will be done elsewhere.
 Leave Link  702 at Mon Sep  5 10:36:03 2022, MaxMem=   262144000 cpu:               0.0 elap:               0.0
 (Enter /binaries/g16/l703.exe)
 Integral derivatives from FoFJK, PRISM(SPDF).
 Compute integral first derivatives, UseDBF=F ICtDFT=           0.
 Calling FoFJK, ICntrl=      2127 FMM=F ISym2X=0 I1Cent= 0 IOpClX= 0 NMat=1 NMatS=1 NMatT=0.
 FoFJK:  IHMeth= 8 ICntrl=    2127 DoSepK=F KAlg= 0 I1Cent=           0 FoldK=F
 IRaf=         0 NMat=       1 IRICut=       1 DoRegI=T DoRafI=F ISym2E= 0 IDoP0=3 IntGTp=3.
 FoFCou: FMM=F IPFlag=           0 FMFlag=      100000 FMFlg1=         800
         NFxFlg=           0 DoJE=F BraDBF=F KetDBF=F FulRan=T
         wScrn=  0.000000 ICntrl=      2127 IOpCl=  0 I1Cent=           0 NGrid=           0
         NMat0=    1 NMatS0=      1 NMatT0=    0 NMatD0=    1 NMtDS0=    0 NMtDT0=    0
 Symmetry not used in FoFCou.
 Leave Link  703 at Mon Sep  5 10:36:03 2022, MaxMem=   262144000 cpu:               0.0 elap:               0.0
 (Enter /binaries/g16/l716.exe)
 Dipole        = 1.67805670D-04 1.02266089D-04 2.12613730D-04
 ***** Axes restored to original set *****
 -------------------------------------------------------------------
 Center     Atomic                   Forces (Hartrees/Bohr)
 Number     Number              X              Y              Z
 -------------------------------------------------------------------
      1        6          -0.000000459   -0.000006490   -0.000792600
      2        1          -0.001340696    0.003760721    0.000186057
      3        1          -0.001247159   -0.001841449   -0.002965322
      4        1          -0.001327677   -0.001876663    0.003431240
      5        1           0.003915990   -0.000036120    0.000140625
 -------------------------------------------------------------------
 Cartesian Forces:  Max     0.003915990 RMS     0.002045432
 Leave Link  716 at Mon Sep  5 10:36:03 2022, MaxMem=   262144000 cpu:               0.0 elap:               0.0
 (Enter /binaries/g16/l103.exe)

 GradGradGradGradGradGradGradGradGradGradGradGradGradGradGradGradGradGrad
 Berny optimization.
 Using GEDIIS/GDIIS optimizer.
 FormGI is forming the generalized inverse of G from B-inverse, IUseBI=4.
 Internal  Forces:  Max     0.004129082 RMS     0.002034862
 Search for a local minimum.
 Step number   2 out of a maximum of   25 on scan point     1 out of    11
 All quantities printed in internal units (Hartrees-Bohrs-Radians)
 RMS Force = .21057D-02 SwitMx=.10000D-02 MixMth= 1
 Mixed Optimization -- RFO/linear search
 Update second derivatives using D2CorX and points    1    2
 DE= -4.98D-03 DEPred=-6.08D-03 R= 8.19D-01
 TightC=F SS=  1.41D+00  RLast= 1.75D-01 DXNew= 5.0454D-01 5.2622D-01
 Trust test= 8.19D-01 RLast= 1.75D-01 DXMaxT set to 5.05D-01
 The second derivative matrix:
                          R1        R2        R3        R4        A1
           R1           0.38675
           R2           0.01389   0.38861
           R3           0.01464   0.01421   0.38074
           R4           0.01431   0.01374   0.01450   0.38646
           A1          -0.00024  -0.00026  -0.00021  -0.00024   0.16000
           A2          -0.00016  -0.00016  -0.00014  -0.00016  -0.00000
           A3          -0.00002  -0.00002  -0.00002  -0.00002  -0.00000
           A4           0.00034   0.00036   0.00029   0.00034   0.00000
           A5           0.00025   0.00025   0.00023   0.00025   0.00000
           A6          -0.00016  -0.00017  -0.00015  -0.00016  -0.00000
           A7           0.00058   0.00060   0.00052   0.00058   0.00000
           D1          -0.00000  -0.00000  -0.00000  -0.00000   0.00000
           D2           0.00069   0.00072   0.00063   0.00069   0.00000
           D3           0.00032   0.00034   0.00029   0.00032   0.00000
           D4          -0.00037  -0.00038  -0.00033  -0.00037  -0.00000
                          A2        A3        A4        A5        A6
           A2           0.16000
           A3          -0.00000   0.16000
           A4           0.00000   0.00000   0.16000
           A5          -0.00000   0.00000  -0.00000   0.16000
           A6           0.00000  -0.00000   0.00000  -0.00000   0.16000
           A7          -0.00000   0.00000  -0.00000   0.00000  -0.00000
           D1           0.00000  -0.00000  -0.00000  -0.00000   0.00000
           D2          -0.00000   0.00000  -0.00000   0.00000  -0.00000
           D3          -0.00000   0.00000  -0.00000   0.00000  -0.00000
           D4           0.00000  -0.00000   0.00000  -0.00000   0.00000
                          A7        D1        D2        D3        D4
           A7           0.16000
           D1          -0.00000   0.00434
           D2           0.00000  -0.00000   0.00500
           D3           0.00000  -0.00000   0.00000   0.00499
           D4          -0.00000   0.00000  -0.00000  -0.00000   0.00500
 ITU=  1  0
 Use linear search instead of GDIIS.
     Eigenvalues ---    0.05903   0.08386   0.13017   0.16000   0.25787
     Eigenvalues ---    0.36758   0.37282   0.428391000.000001000.00000
     Eigenvalues --- 1000.000001000.000001000.000001000.000001000.00000
 RFO step:  Lambda=-1.50502407D-06 EMin= 5.90284873D-02
 Quartic linear search produced a step of -0.11504.
 Iteration  1 RMS(Cart)=  0.00523806 RMS(Int)=  0.00000290
 Iteration  2 RMS(Cart)=  0.00000213 RMS(Int)=  0.00000089
 Iteration  3 RMS(Cart)=  0.00000000 RMS(Int)=  0.00000089
 Iteration  1 RMS(Cart)=  0.00000049 RMS(Int)=  0.00000170
 ITry= 1 IFail=0 DXMaxC= 1.03D-02 DCOld= 1.00D+10 DXMaxT= 5.05D-01 DXLimC= 3.00D+00 Rises=F
 Variable       Old X    -DE/DX   Delta X   Delta X   Delta X     New X
                                 (Linear)    (Quad)   (Total)
    R1        2.11092  -0.00398  -0.01023   0.00025  -0.00998   2.10094
    R2        2.10981  -0.00372  -0.01062   0.00087  -0.00975   2.10005
    R3        2.11169  -0.00413  -0.00924  -0.00142  -0.01067   2.10103
    R4        2.11075  -0.00392  -0.01021   0.00016  -0.01005   2.10070
    A1        1.91264  -0.00004  -0.00014   0.00021   0.00006   1.91270
    A2        1.90883   0.00006   0.00002   0.00079   0.00080   1.90964
    A3        1.91094  -0.00005  -0.00003  -0.00051  -0.00054   1.91040
    A4        1.91061  -0.00001   0.00019  -0.00035  -0.00016   1.91045
    A5        1.91180  -0.00008  -0.00004  -0.00098  -0.00102   1.91078
    A6        1.90897   0.00011   0.00001   0.00085   0.00086   1.90983
    A7        0.61429   0.00007   0.00000   0.00000   0.00001   0.61430
    D1       -2.09574   0.00002   0.00005  -0.00052  -0.00047  -2.09621
    D2        2.09776  -0.00013  -0.00022  -0.00066  -0.00088   2.09688
    D3       -2.09136  -0.00012  -0.00001  -0.00117  -0.00117  -2.09254
    D4        2.09406   0.00001   0.00021  -0.00051  -0.00029   2.09377
         Item               Value     Threshold  Converged?
 Maximum Force            0.004129     0.000450     NO 
 RMS     Force            0.002106     0.000300     NO 
 Maximum Displacement     0.010348     0.001800     NO 
 RMS     Displacement     0.005238     0.001200     NO 
 Predicted change in Energy=-7.193776D-05
 Lowest energy point so far.  Saving SCF results.
 GradGradGradGradGradGradGradGradGradGradGradGradGradGradGradGradGradGrad

 Leave Link  103 at Mon Sep  5 10:36:03 2022, MaxMem=   262144000 cpu:               0.0 elap:               0.0
 (Enter /binaries/g16/l202.exe)
                          Input orientation:                          
 ---------------------------------------------------------------------
 Center     Atomic      Atomic             Coordinates (Angstroms)
 Number     Number       Type             X           Y           Z
 ---------------------------------------------------------------------
      1          6           0        4.292011    3.658720   -0.001200
      2          1           0        4.662248    2.610411   -0.001338
      3          1           0        4.663089    4.184814    0.904624
      4          1           0        4.661381    4.181225   -0.910424
      5          1           0        3.180371    3.658830   -0.000661
 ---------------------------------------------------------------------
                    Distance matrix (angstroms):
                    1          2          3          4          5
     1  C    0.000000
     2  H    1.111768   0.000000
     3  H    1.111300   1.816455   0.000000
     4  H    1.111816   1.814909   1.815052   0.000000
     5  H    1.111640   1.815253   1.815118   1.814926   0.000000
 Stoichiometry    CH4
 Framework group  C1[X(CH4)]
 Deg. of freedom     9
 Full point group                 C1      NOp   1
 RotChk:  IX=0 Diff= 1.03D+00
 Largest Abelian subgroup         C1      NOp   1
 Largest concise Abelian subgroup C1      NOp   1
                         Standard orientation:                         
 ---------------------------------------------------------------------
 Center     Atomic      Atomic             Coordinates (Angstroms)
 Number     Number       Type             X           Y           Z
 ---------------------------------------------------------------------
      1          6           0       -0.000121   -0.000011   -0.000293
      2          1           0        0.907892   -0.104208   -0.633289
      3          1           0       -0.901142   -0.263691   -0.594955
      4          1           0        0.078946   -0.681736    0.874426
      5          1           0       -0.084970    1.049704    0.355576
 ---------------------------------------------------------------------
 Rotational constants (GHZ):         152.2737261         152.1469702         152.1030037
 Leave Link  202 at Mon Sep  5 10:36:03 2022, MaxMem=   262144000 cpu:               0.0 elap:               0.0
 (Enter /binaries/g16/l301.exe)
 Standard basis: VSTO-6G (5D, 7F)
 Ernie: Thresh=  0.10000D-02 Tol=  0.10000D-05 Strict=F.
  NNHCO=     0 NNPyr=     0 NCTC=     0               EPep=         0.000000000
    EC=         6.784209432  ECS=         0.509775872   EG=         0.066566392
   EHC=         0.000000000  EAt=        -6.115142680  AtH=         0.604449838
 EPDDG=         0.000000000  ECC=         7.360551696 EAtT=         6.719592518
 There are     8 symmetry adapted cartesian basis functions of A   symmetry.
 There are     8 symmetry adapted basis functions of A   symmetry.
     8 basis functions,    48 primitive gaussians,     8 cartesian basis functions
     4 alpha electrons        4 beta electrons
       nuclear repulsion energy        14.0801442139 Hartrees.
 IExCor=    0 DFT=F Ex=HF Corr=None ExCW=0 ScaHFX=  1.000000
 ScaDFX=  1.000000  1.000000  1.000000  1.000000 ScalE2=  1.000000  1.000000
 IRadAn=      5 IRanWt=     -1 IRanGd=            0 ICorTp=0 IEmpDi=  4
 Integral buffers will be    131072 words long.
 Regular integral format.
 Two-electron integral symmetry is turned off.
 Leave Link  301 at Mon Sep  5 10:36:03 2022, MaxMem=   262144000 cpu:               0.0 elap:               0.0
 (Enter /binaries/g16/l302.exe)
 Do NDO integrals.
 NPDir=0 NMtPBC=     1 NCelOv=     1 NCel=       1 NClECP=     1 NCelD=      1
         NCelK=      1 NCelE2=     1 NClLst=     1 CellRange=     0.0.
 One-electron integrals computed using PRISM.
 NBasis=     8 RedAO= F EigKep=  0.00D+00  NBF=     8
 NBsUse=     8 1.00D-04 EigRej=  0.00D+00 NBFU=     8
 Leave Link  302 at Mon Sep  5 10:36:03 2022, MaxMem=   262144000 cpu:               0.0 elap:               0.0
 (Enter /binaries/g16/l303.exe)
 DipDrv:  MaxL=1.
 Leave Link  303 at Mon Sep  5 10:36:03 2022, MaxMem=   262144000 cpu:               0.0 elap:               0.0
 (Enter /binaries/g16/l401.exe)
 Initial guess from the checkpoint file:  "in.chk"
 B after Tr=    -0.000000    0.000000    0.000000
         Rot=    0.931818   -0.352530    0.078195   -0.036378 Ang= -42.56 deg.
 Guess basis will be translated and rotated to current coordinates.
 JPrj=0 DoOrth=T DoCkMO=T.
 Leave Link  401 at Mon Sep  5 10:36:03 2022, MaxMem=   262144000 cpu:               0.0 elap:               0.0
 (Enter /binaries/g16/l502.exe)
 Keep J ints in memory in canonical form, NReq=859348.
 FoFCou: FMM=F IPFlag=           0 FMFlag=           0 FMFlg1=           0
         NFxFlg=           0 DoJE=F BraDBF=F KetDBF=F FulRan=T
         wScrn=  0.000000 ICntrl=       600 IOpCl=  2 I1Cent=           0 NGrid=           0
         NMat0=    1 NMatS0=     14 NMatT0=    0 NMatD0=    1 NMtDS0=    0 NMtDT0=    0
 Symmetry not used in FoFCou.
 Two-electron integral symmetry not used.
 Closed shell SCF:
 Using DIIS extrapolation, IDIIS=  1040.
 Overlap will be assumed to be unity.
 NGot=   262144000 LenX=   262083483 LenY=   262082601
 Requested convergence on RMS density matrix=1.00D-08 within 128 cycles.
 Requested convergence on MAX density matrix=1.00D-06.
 Requested convergence on             energy=1.00D-06.
 No special actions if energy rises.

 Cycle   1  Pass 1  IDiag  1:
 E=-0.140189263835673E-01
 DIIS: error= 3.82D-04 at cycle   1 NSaved=   1.
 NSaved= 1 IEnMin= 1 EnMin=-0.140189263835673E-01 IErMin= 1 ErrMin= 3.82D-04
 ErrMax= 3.82D-04  0.00D+00 EMaxC= 1.00D-01 BMatC= 2.36D-06 BMatP= 2.36D-06
 IDIUse=3 WtCom= 9.96D-01 WtEn= 3.82D-03
 Coeff-Com:  0.100D+01
 Coeff-En:   0.100D+01
 Coeff:      0.100D+01
 RMSDP=2.24D-04 MaxDP=1.18D-03              OVMax= 0.00D+00

 Cycle   2  Pass 1  IDiag  3:
 E=-0.140237069841529E-01 Delta-E=       -0.000004780601 Rises=F Damp=F
 DIIS: error= 8.90D-05 at cycle   2 NSaved=   2.
 NSaved= 2 IEnMin= 2 EnMin=-0.140237069841529E-01 IErMin= 2 ErrMin= 8.90D-05
 ErrMax= 8.90D-05  0.00D+00 EMaxC= 1.00D-01 BMatC= 1.35D-07 BMatP= 2.36D-06
 IDIUse=1 WtCom= 1.00D+00 WtEn= 0.00D+00
 Coeff-Com: -0.306D+00 0.131D+01
 Coeff:     -0.306D+00 0.131D+01
 Gap=     0.660 Goal=   None    Shift=    0.000
 RMSDP=7.57D-05 MaxDP=3.53D-04 DE=-4.78D-06 OVMax= 3.63D-04

 Cycle   3  Pass 1  IDiag  3:
 E=-0.140240277303203E-01 Delta-E=       -0.000000320746 Rises=F Damp=F
 DIIS: error= 8.16D-06 at cycle   3 NSaved=   3.
 NSaved= 3 IEnMin= 3 EnMin=-0.140240277303203E-01 IErMin= 3 ErrMin= 8.16D-06
 ErrMax= 8.16D-06  0.00D+00 EMaxC= 1.00D-01 BMatC= 1.35D-09 BMatP= 1.35D-07
 IDIUse=1 WtCom= 1.00D+00 WtEn= 0.00D+00
 Coeff-Com:  0.271D+00-0.117D+01 0.190D+01
 Coeff:      0.271D+00-0.117D+01 0.190D+01
 Gap=     0.660 Goal=   None    Shift=    0.000
 RMSDP=1.87D-05 MaxDP=6.22D-05 DE=-3.21D-07 OVMax= 5.90D-05

 Cycle   4  Pass 1  IDiag  3:
 E=-0.140240355835104E-01 Delta-E=       -0.000000007853 Rises=F Damp=F
 DIIS: error= 4.89D-07 at cycle   4 NSaved=   4.
 NSaved= 4 IEnMin= 4 EnMin=-0.140240355835104E-01 IErMin= 4 ErrMin= 4.89D-07
 ErrMax= 4.89D-07  0.00D+00 EMaxC= 1.00D-01 BMatC= 6.11D-12 BMatP= 1.35D-09
 IDIUse=1 WtCom= 1.00D+00 WtEn= 0.00D+00
 Coeff-Com: -0.182D+00 0.785D+00-0.128D+01 0.168D+01
 Coeff:     -0.182D+00 0.785D+00-0.128D+01 0.168D+01
 Gap=     0.660 Goal=   None    Shift=    0.000
 RMSDP=1.11D-06 MaxDP=2.37D-06 DE=-7.85D-09 OVMax= 0.00D+00

 Cycle   5  Pass 1  IDiag  3:
 E=-0.140240356150070E-01 Delta-E=       -0.000000000031 Rises=F Damp=F
 DIIS: error= 4.46D-08 at cycle   5 NSaved=   5.
 NSaved= 5 IEnMin= 5 EnMin=-0.140240356150070E-01 IErMin= 5 ErrMin= 4.46D-08
 ErrMax= 4.46D-08  0.00D+00 EMaxC= 1.00D-01 BMatC= 2.81D-14 BMatP= 6.11D-12
 IDIUse=1 WtCom= 1.00D+00 WtEn= 0.00D+00
 Coeff-Com:  0.105D+00-0.451D+00 0.736D+00-0.975D+00 0.159D+01
 Coeff:      0.105D+00-0.451D+00 0.736D+00-0.975D+00 0.159D+01
 Gap=     0.660 Goal=   None    Shift=    0.000
 RMSDP=7.14D-08 MaxDP=2.07D-07 DE=-3.15D-11 OVMax= 0.00D+00

 Cycle   6  Pass 1  IDiag  3:
 E=-0.140240356151686E-01 Delta-E=       -0.000000000000 Rises=F Damp=F
 DIIS: error= 5.36D-09 at cycle   6 NSaved=   6.
 NSaved= 6 IEnMin= 6 EnMin=-0.140240356151686E-01 IErMin= 6 ErrMin= 5.36D-09
 ErrMax= 5.36D-09  0.00D+00 EMaxC= 1.00D-01 BMatC= 5.82D-16 BMatP= 2.81D-14
 IDIUse=1 WtCom= 1.00D+00 WtEn= 0.00D+00
 Coeff-Com: -0.342D-01 0.147D+00-0.241D+00 0.320D+00-0.612D+00 0.142D+01
 Coeff:     -0.342D-01 0.147D+00-0.241D+00 0.320D+00-0.612D+00 0.142D+01
 Gap=     0.660 Goal=   None    Shift=    0.000
 RMSDP=1.04D-08 MaxDP=2.43D-08 DE=-1.62D-13 OVMax= 4.17D-08

 Cycle   7  Pass 1  IDiag  3:
 E=-0.140240356151526E-01 Delta-E=        0.000000000000 Rises=F Damp=F
 DIIS: error= 4.26D-10 at cycle   7 NSaved=   7.
 NSaved= 7 IEnMin= 6 EnMin=-0.140240356151686E-01 IErMin= 7 ErrMin= 4.26D-10
 ErrMax= 4.26D-10  0.00D+00 EMaxC= 1.00D-01 BMatC= 5.32D-18 BMatP= 5.82D-16
 IDIUse=1 WtCom= 1.00D+00 WtEn= 0.00D+00
 Coeff-Com:  0.292D-02-0.126D-01 0.205D-01-0.277D-01 0.637D-01-0.204D+00
 Coeff-Com:  0.116D+01
 Coeff:      0.292D-02-0.126D-01 0.205D-01-0.277D-01 0.637D-01-0.204D+00
 Coeff:      0.116D+01
 Gap=     0.660 Goal=   None    Shift=    0.000
 RMSDP=7.27D-10 MaxDP=2.17D-09 DE= 1.60D-14 OVMax= 0.00D+00

 SCF Done:  E(RAM1) = -0.140240356152E-01 A.U. after    7 cycles
            NFock=  7  Conv=0.73D-09     -V/T= 0.9986
 KE=-9.877200900188D+00 PE=-1.325369889541D+01 EE= 9.036731546035D+00
 Leave Link  502 at Mon Sep  5 10:36:04 2022, MaxMem=   262144000 cpu:               0.0 elap:               0.0
 (Enter /binaries/g16/l701.exe)
 ... and contract with generalized density number  0.
 Compute integral first derivatives.
 Leave Link  701 at Mon Sep  5 10:36:04 2022, MaxMem=   262144000 cpu:               0.0 elap:               0.0
 (Enter /binaries/g16/l702.exe)
 L702 exits ... SP integral derivatives will be done elsewhere.
 Leave Link  702 at Mon Sep  5 10:36:04 2022, MaxMem=   262144000 cpu:               0.0 elap:               0.0
 (Enter /binaries/g16/l703.exe)
 Integral derivatives from FoFJK, PRISM(SPDF).
 Compute integral first derivatives, UseDBF=F ICtDFT=           0.
 Calling FoFJK, ICntrl=      2127 FMM=F ISym2X=0 I1Cent= 0 IOpClX= 0 NMat=1 NMatS=1 NMatT=0.
 FoFJK:  IHMeth= 8 ICntrl=    2127 DoSepK=F KAlg= 0 I1Cent=           0 FoldK=F
 IRaf=         0 NMat=       1 IRICut=       1 DoRegI=T DoRafI=F ISym2E= 0 IDoP0=3 IntGTp=3.
 FoFCou: FMM=F IPFlag=           0 FMFlag=      100000 FMFlg1=         800
         NFxFlg=           0 DoJE=F BraDBF=F KetDBF=F FulRan=T
         wScrn=  0.000000 ICntrl=      2127 IOpCl=  0 I1Cent=           0 NGrid=           0
         NMat0=    1 NMatS0=      1 NMatT0=    0 NMatD0=    1 NMtDS0=    0 NMtDT0=    0
 Symmetry not used in FoFCou.
 Leave Link  703 at Mon Sep  5 10:36:04 2022, MaxMem=   262144000 cpu:               0.0 elap:               0.0
 (Enter /binaries/g16/l716.exe)
 Dipole        = 6.03342171D-05 9.57485965D-06 1.83809914D-04
 ***** Axes restored to original set *****
 -------------------------------------------------------------------
 Center     Atomic                   Forces (Hartrees/Bohr)
 Number     Number              X              Y              Z
 -------------------------------------------------------------------
      1        6          -0.000082203   -0.000063782   -0.000440342
      2        1           0.000005388    0.000118854    0.000149775
      3        1           0.000096103   -0.000037667    0.000167664
      4        1           0.000002130   -0.000002264    0.000070262
      5        1          -0.000021419   -0.000015141    0.000052641
 -------------------------------------------------------------------
 Cartesian Forces:  Max     0.000440342 RMS     0.000138681
 Leave Link  716 at Mon Sep  5 10:36:04 2022, MaxMem=   262144000 cpu:               0.0 elap:               0.0
 (Enter /binaries/g16/l103.exe)

 GradGradGradGradGradGradGradGradGradGradGradGradGradGradGradGradGradGrad
 Berny optimization.
 Using GEDIIS/GDIIS optimizer.
 FormGI is forming the generalized inverse of G from B-inverse, IUseBI=4.
 Internal  Forces:  Max     0.000138408 RMS     0.000063736
 Search for a local minimum.
 Step number   3 out of a maximum of   25 on scan point     1 out of    11
 All quantities printed in internal units (Hartrees-Bohrs-Radians)
 RMS Force = .31879D-04 SwitMx=.10000D-02 MixMth= 2
 Mixed Optimization -- En-DIIS/RFO-DIIS
 Update second derivatives using D2CorX and points    1    2    3
 DE= -8.04D-05 DEPred=-7.19D-05 R= 1.12D+00
 TightC=F SS=  1.41D+00  RLast= 2.04D-02 DXNew= 8.4853D-01 6.1099D-02
 Trust test= 1.12D+00 RLast= 2.04D-02 DXMaxT set to 5.05D-01
 The second derivative matrix:
                          R1        R2        R3        R4        A1
           R1           0.37621
           R2           0.00453   0.38037
           R3           0.00389   0.00471   0.36977
           R4           0.00458   0.00518   0.00462   0.37756
           A1          -0.00041  -0.00043  -0.00039  -0.00042   0.16000
           A2           0.00248   0.00240   0.00267   0.00249  -0.00001
           A3          -0.00094  -0.00091  -0.00100  -0.00094   0.00000
           A4          -0.00029  -0.00024  -0.00037  -0.00029   0.00001
           A5          -0.00219  -0.00210  -0.00237  -0.00219   0.00001
           A6           0.00136   0.00129   0.00146   0.00134  -0.00000
           A7           0.00026   0.00029   0.00019   0.00026   0.00000
           D1           0.00095   0.00093   0.00102   0.00096  -0.00001
           D2           0.00093   0.00095   0.00088   0.00093  -0.00000
           D3           0.00114   0.00114   0.00117   0.00116  -0.00001
           D4           0.00022   0.00019   0.00029   0.00022  -0.00000
                          A2        A3        A4        A5        A6
           A2           0.15988
           A3           0.00007   0.15997
           A4           0.00004  -0.00002   0.15999
           A5           0.00014  -0.00007  -0.00004   0.15984
           A6          -0.00011   0.00005   0.00003   0.00012   0.15991
           A7           0.00002  -0.00001  -0.00001  -0.00002   0.00001
           D1          -0.00001   0.00001   0.00000   0.00002  -0.00002
           D2           0.00002  -0.00000  -0.00001  -0.00001   0.00000
           D3           0.00000   0.00001   0.00000   0.00001  -0.00002
           D4          -0.00001   0.00001   0.00001   0.00002  -0.00002
                          A7        D1        D2        D3        D4
           A7           0.16000
           D1           0.00000   0.00435
           D2           0.00000   0.00001   0.00500
           D3           0.00000   0.00001   0.00001   0.00501
           D4           0.00000   0.00000   0.00000   0.00000   0.00500
 ITU=  1  1  0
 Use linear search instead of GDIIS.
     Eigenvalues ---    0.05897   0.08389   0.13005   0.16000   0.25713
     Eigenvalues ---    0.36693   0.37283   0.390471000.000001000.00000
     Eigenvalues --- 1000.000001000.000001000.000001000.000001000.00000
 RFO step:  Lambda=-9.48207450D-08 EMin= 5.89709743D-02
 Quartic linear search produced a step of  0.00122.
 Iteration  1 RMS(Cart)=  0.00017698 RMS(Int)=  0.00000007
 Iteration  2 RMS(Cart)=  0.00000005 RMS(Int)=  0.00000004
 Iteration  1 RMS(Cart)=  0.00000043 RMS(Int)=  0.00000149
 ITry= 1 IFail=0 DXMaxC= 3.33D-04 DCOld= 1.00D+10 DXMaxT= 5.05D-01 DXLimC= 3.00D+00 Rises=F
 Variable       Old X    -DE/DX   Delta X   Delta X   Delta X     New X
                                 (Linear)    (Quad)   (Total)
    R1        2.10094  -0.00010  -0.00001  -0.00000  -0.00002   2.10092
    R2        2.10005   0.00014  -0.00001   0.00013   0.00012   2.10017
    R3        2.10103  -0.00006  -0.00001  -0.00015  -0.00016   2.10086
    R4        2.10070   0.00002  -0.00001   0.00007   0.00005   2.10075
    A1        1.91270  -0.00007   0.00000   0.00004   0.00004   1.91275
    A2        1.90964   0.00004   0.00000   0.00032   0.00033   1.90996
    A3        1.91040   0.00000  -0.00000  -0.00021  -0.00021   1.91018
    A4        1.91045   0.00001  -0.00000  -0.00015  -0.00015   1.91030
    A5        1.91078  -0.00000  -0.00000  -0.00040  -0.00040   1.91038
    A6        1.90983   0.00003   0.00000   0.00039   0.00039   1.91021
    A7        0.61430   0.00007   0.00000   0.00000   0.00000   0.61430
    D1       -2.09621   0.00006  -0.00000  -0.00016  -0.00016  -2.09637
    D2        2.09688  -0.00009  -0.00000  -0.00032  -0.00032   2.09656
    D3       -2.09254  -0.00006  -0.00000  -0.00051  -0.00051  -2.09304
    D4        2.09377   0.00002  -0.00000  -0.00019  -0.00019   2.09358
         Item               Value     Threshold  Converged?
 Maximum Force            0.000058     0.000450     YES
 RMS     Force            0.000032     0.000300     YES
 Maximum Displacement     0.000333     0.001800     YES
 RMS     Displacement     0.000177     0.001200     YES
 Predicted change in Energy=-4.798037D-08
 Optimization completed.
    -- Stationary point found.
                           ----------------------------
                           !   Optimized Parameters   !
                           ! (Angstroms and Degrees)  !
 --------------------------                            --------------------------
 ! Name  Definition              Value          Derivative Info.                !
 --------------------------------------------------------------------------------
 ! R1    R(1,2)                  1.1118         -DE/DX =   -0.0001              !
 ! R2    R(1,3)                  1.1113         -DE/DX =    0.0001              !
 ! R3    R(1,4)                  1.1118         -DE/DX =   -0.0001              !
 ! R4    R(1,5)                  1.1116         -DE/DX =    0.0                 !
 ! A1    A(2,1,3)              109.5898         -DE/DX =   -0.0001              !
 ! A2    A(2,1,4)              109.4142         -DE/DX =    0.0                 !
 ! A3    A(2,1,5)              109.4576         -DE/DX =    0.0                 !
 ! A4    A(3,1,4)              109.461          -DE/DX =    0.0                 !
 ! A5    A(3,1,5)              109.4796         -DE/DX =    0.0                 !
 ! A6    A(4,1,5)              109.425          -DE/DX =    0.0                 !
 ! A7    A(1,2,3)               35.1966         -DE/DX =    0.0001              !
 ! D1    D(2,1,4,3)           -120.104          -DE/DX =    0.0001              !
 ! D2    D(2,1,5,3)            120.1421         -DE/DX =   -0.0001              !
 ! D3    D(2,1,5,4)           -119.8936         -DE/DX =   -0.0001              !
 ! D4    D(3,1,5,4)            119.9643         -DE/DX =    0.0                 !
 --------------------------------------------------------------------------------
 Lowest energy point so far.  Saving SCF results.
 Iteration  1 RMS(Cart)=  0.01150403 RMS(Int)=  0.04005718
 Iteration  2 RMS(Cart)=  0.00028915 RMS(Int)=  0.04005591
 Iteration  3 RMS(Cart)=  0.00000572 RMS(Int)=  0.04005591
 Iteration  4 RMS(Cart)=  0.00000014 RMS(Int)=  0.04005591
 Iteration  1 RMS(Cart)=  0.01030818 RMS(Int)=  0.03508523
 Iteration  2 RMS(Cart)=  0.00918948 RMS(Int)=  0.03689232
 Iteration  3 RMS(Cart)=  0.00813865 RMS(Int)=  0.04124093
 Iteration  4 RMS(Cart)=  0.00716495 RMS(Int)=  0.04662413
 Iteration  5 RMS(Cart)=  0.00627366 RMS(Int)=  0.05216547
 Iteration  6 RMS(Cart)=  0.00546662 RMS(Int)=  0.05744091
 Iteration  7 RMS(Cart)=  0.00474284 RMS(Int)=  0.06226844
 Iteration  8 RMS(Cart)=  0.00409921 RMS(Int)=  0.06658699
 Iteration  9 RMS(Cart)=  0.00353107 RMS(Int)=  0.07039531
 Iteration 10 RMS(Cart)=  0.00303278 RMS(Int)=  0.07372117
 Iteration 11 RMS(Cart)=  0.00259820 RMS(Int)=  0.07660547
 Iteration 12 RMS(Cart)=  0.00222099 RMS(Int)=  0.07909381
 Iteration 13 RMS(Cart)=  0.00189495 RMS(Int)=  0.08123190
 Iteration 14 RMS(Cart)=  0.00161414 RMS(Int)=  0.08306322
 Iteration 15 RMS(Cart)=  0.00137303 RMS(Int)=  0.08462779
 Iteration 16 RMS(Cart)=  0.00116654 RMS(Int)=  0.08596171
 Iteration 17 RMS(Cart)=  0.00099009 RMS(Int)=  0.08709706
 Iteration 18 RMS(Cart)=  0.00083960 RMS(Int)=  0.08806205
 Iteration 19 RMS(Cart)=  0.00071147 RMS(Int)=  0.08888130
 Iteration 20 RMS(Cart)=  0.00060250 RMS(Int)=  0.08957615
 Iteration 21 RMS(Cart)=  0.00050996 RMS(Int)=  0.09016502
 Iteration 22 RMS(Cart)=  0.00043143 RMS(Int)=  0.09066374
 Iteration 23 RMS(Cart)=  0.00036486 RMS(Int)=  0.09108587
 Iteration 24 RMS(Cart)=  0.00030846 RMS(Int)=  0.09144301
 Iteration 25 RMS(Cart)=  0.00026071 RMS(Int)=  0.09174505
 Iteration 26 RMS(Cart)=  0.00022030 RMS(Int)=  0.09200039
 Iteration 27 RMS(Cart)=  0.00018611 RMS(Int)=  0.09221621
 Iteration 28 RMS(Cart)=  0.00015721 RMS(Int)=  0.09239857
 Iteration 29 RMS(Cart)=  0.00013277 RMS(Int)=  0.09255263
 Iteration 30 RMS(Cart)=  0.00011212 RMS(Int)=  0.09268277
 Iteration 31 RMS(Cart)=  0.00009467 RMS(Int)=  0.09279267
 Iteration 32 RMS(Cart)=  0.00007993 RMS(Int)=  0.09288549
 Iteration 33 RMS(Cart)=  0.00006748 RMS(Int)=  0.09296385
 Iteration 34 RMS(Cart)=  0.00005697 RMS(Int)=  0.09303002
 Iteration 35 RMS(Cart)=  0.00004809 RMS(Int)=  0.09308588
 Iteration 36 RMS(Cart)=  0.00004060 RMS(Int)=  0.09313304
 Iteration 37 RMS(Cart)=  0.00003427 RMS(Int)=  0.09317285
 Iteration 38 RMS(Cart)=  0.00002892 RMS(Int)=  0.09320645
 Iteration 39 RMS(Cart)=  0.00002441 RMS(Int)=  0.09323481
 Iteration 40 RMS(Cart)=  0.00002060 RMS(Int)=  0.09325876
 Iteration 41 RMS(Cart)=  0.00001739 RMS(Int)=  0.09327896
 Iteration 42 RMS(Cart)=  0.00001468 RMS(Int)=  0.09329602
 Iteration 43 RMS(Cart)=  0.00001239 RMS(Int)=  0.09331041
 Iteration 44 RMS(Cart)=  0.00001045 RMS(Int)=  0.09332256
 Iteration 45 RMS(Cart)=  0.00000882 RMS(Int)=  0.09333282
 Iteration 46 RMS(Cart)=  0.00000745 RMS(Int)=  0.09334147
 Iteration 47 RMS(Cart)=  0.00000628 RMS(Int)=  0.09334877
 Iteration 48 RMS(Cart)=  0.00000530 RMS(Int)=  0.09335494
 Iteration 49 RMS(Cart)=  0.00000448 RMS(Int)=  0.09336014
 Iteration 50 RMS(Cart)=  0.00000378 RMS(Int)=  0.09336453
 Iteration 51 RMS(Cart)=  0.00000319 RMS(Int)=  0.09336823
 Iteration 52 RMS(Cart)=  0.00000269 RMS(Int)=  0.09337136
 Iteration 53 RMS(Cart)=  0.00000227 RMS(Int)=  0.09337400
 Iteration 54 RMS(Cart)=  0.00000192 RMS(Int)=  0.09337623
 Iteration 55 RMS(Cart)=  0.00000162 RMS(Int)=  0.09337811
 Iteration 56 RMS(Cart)=  0.00000136 RMS(Int)=  0.09337969
 Iteration 57 RMS(Cart)=  0.00000115 RMS(Int)=  0.09338103
 Iteration 58 RMS(Cart)=  0.00000097 RMS(Int)=  0.09338216
 GradGradGradGradGradGradGradGradGradGradGradGradGradGradGradGradGradGrad

 Leave Link  103 at Mon Sep  5 10:36:04 2022, MaxMem=   262144000 cpu:               0.0 elap:               0.0
 (Enter /binaries/g16/l202.exe)
                          Input orientation:                          
 ---------------------------------------------------------------------
 Center     Atomic      Atomic             Coordinates (Angstroms)
 Number     Number       Type             X           Y           Z
 ---------------------------------------------------------------------
      1          6           0        4.275446    3.637730   -0.027795
      2          1           0        4.662332    2.712637    0.048006
      3          1           0        4.734241    4.129652    0.976858
      4          1           0        4.622739    4.161401   -0.944926
      5          1           0        3.164342    3.652581   -0.061143
 ---------------------------------------------------------------------
                    Distance matrix (angstroms):
                    1          2          3          4          5
     1  C    0.000000
     2  H    1.005596   0.000000
     3  H    1.209052   1.695838   0.000000
     4  H    1.111744   1.756815   1.925278   0.000000
     5  H    1.111703   1.771831   1.941552   1.779577   0.000000
 Stoichiometry    CH4
 Framework group  C1[X(CH4)]
 Deg. of freedom     9
 Full point group                 C1      NOp   1
 RotChk:  IX=1 Diff= 1.63D+00
 Largest Abelian subgroup         C1      NOp   1
 Largest concise Abelian subgroup C1      NOp   1
                         Standard orientation:                         
 ---------------------------------------------------------------------
 Center     Atomic      Atomic             Coordinates (Angstroms)
 Number     Number       Type             X           Y           Z
 ---------------------------------------------------------------------
      1          6           0        0.014847    0.002250   -0.011021
      2          1           0       -0.312031   -0.012618   -0.961891
      3          1           0       -1.046926    0.053665    0.565002
      4          1           0        0.586149   -0.915565    0.248216
      5          1           0        0.683727    0.861020    0.214801
 ---------------------------------------------------------------------
 Rotational constants (GHZ):         170.7897283         149.2423792         139.7076649
 Leave Link  202 at Mon Sep  5 10:36:04 2022, MaxMem=   262144000 cpu:               0.0 elap:               0.0
 (Enter /binaries/g16/l301.exe)
 Standard basis: VSTO-6G (5D, 7F)
 Ernie: Thresh=  0.10000D-02 Tol=  0.10000D-05 Strict=F.
  NNHCO=     0 NNPyr=     0 NCTC=     0               EPep=         0.000000000
    EC=         6.795057695  ECS=         0.527234457   EG=         0.065971599
   EHC=         0.000000000  EAt=        -6.115142680  AtH=         0.604449838
 EPDDG=         0.000000000  ECC=         7.388263751 EAtT=         6.719592518
 There are     8 symmetry adapted cartesian basis functions of A   symmetry.
 There are     8 symmetry adapted basis functions of A   symmetry.
     8 basis functions,    48 primitive gaussians,     8 cartesian basis functions
     4 alpha electrons        4 beta electrons
       nuclear repulsion energy        14.1078562686 Hartrees.
 IExCor=    0 DFT=F Ex=HF Corr=None ExCW=0 ScaHFX=  1.000000
 ScaDFX=  1.000000  1.000000  1.000000  1.000000 ScalE2=  1.000000  1.000000
 IRadAn=      5 IRanWt=     -1 IRanGd=            0 ICorTp=0 IEmpDi=  4
 Integral buffers will be    131072 words long.
 Regular integral format.
 Two-electron integral symmetry is turned off.
 Leave Link  301 at Mon Sep  5 10:36:04 2022, MaxMem=   262144000 cpu:               0.0 elap:               0.0
 (Enter /binaries/g16/l302.exe)
 Do NDO integrals.
 NPDir=0 NMtPBC=     1 NCelOv=     1 NCel=       1 NClECP=     1 NCelD=      1
         NCelK=      1 NCelE2=     1 NClLst=     1 CellRange=     0.0.
 One-electron integrals computed using PRISM.
 NBasis=     8 RedAO= F EigKep=  0.00D+00  NBF=     8
 NBsUse=     8 1.00D-04 EigRej=  0.00D+00 NBFU=     8
 Leave Link  302 at Mon Sep  5 10:36:04 2022, MaxMem=   262144000 cpu:               0.0 elap:               0.0
 (Enter /binaries/g16/l303.exe)
 DipDrv:  MaxL=1.
 Leave Link  303 at Mon Sep  5 10:36:04 2022, MaxMem=   262144000 cpu:               0.0 elap:               0.0
 (Enter /binaries/g16/l401.exe)
 Initial guess from the checkpoint file:  "in.chk"
 B after Tr=    -0.000000   -0.000000   -0.000000
         Rot=    0.817777   -0.099575   -0.548176    0.144320 Ang= -70.27 deg.
 Guess basis will be translated and rotated to current coordinates.
 JPrj=0 DoOrth=T DoCkMO=T.
 Leave Link  401 at Mon Sep  5 10:36:04 2022, MaxMem=   262144000 cpu:               0.0 elap:               0.0
 (Enter /binaries/g16/l502.exe)
 Keep J ints in memory in canonical form, NReq=859348.
 FoFCou: FMM=F IPFlag=           0 FMFlag=           0 FMFlg1=           0
         NFxFlg=           0 DoJE=F BraDBF=F KetDBF=F FulRan=T
         wScrn=  0.000000 ICntrl=       600 IOpCl=  2 I1Cent=           0 NGrid=           0
         NMat0=    1 NMatS0=     14 NMatT0=    0 NMatD0=    1 NMtDS0=    0 NMtDT0=    0
 Symmetry not used in FoFCou.
 Two-electron integral symmetry not used.
 Closed shell SCF:
 Using DIIS extrapolation, IDIIS=  1040.
 Overlap will be assumed to be unity.
 NGot=   262144000 LenX=   262083483 LenY=   262082601
 Requested convergence on RMS density matrix=1.00D-08 within 128 cycles.
 Requested convergence on MAX density matrix=1.00D-06.
 Requested convergence on             energy=1.00D-06.
 No special actions if energy rises.

 Cycle   1  Pass 1  IDiag  1:
 E= 0.302672892792621E-02
 DIIS: error= 6.41D-03 at cycle   1 NSaved=   1.
 NSaved= 1 IEnMin= 1 EnMin= 0.302672892792621E-02 IErMin= 1 ErrMin= 6.41D-03
 ErrMax= 6.41D-03  0.00D+00 EMaxC= 1.00D-01 BMatC= 5.92D-04 BMatP= 5.92D-04
 IDIUse=3 WtCom= 9.36D-01 WtEn= 6.41D-02
 Coeff-Com:  0.100D+01
 Coeff-En:   0.100D+01
 Coeff:      0.100D+01
 GapD=    2.000 DampG=2.000 DampE=1.000 DampFc=2.0000 IDamp=-1.
 RMSDP=4.16D-03 MaxDP=1.17D-02              OVMax= 0.00D+00

 Cycle   2  Pass 1  IDiag  3:
 E= 0.161227391505392E-02 Delta-E=       -0.001414455013 Rises=F Damp=F
 DIIS: error= 1.65D-03 at cycle   2 NSaved=   2.
 NSaved= 2 IEnMin= 2 EnMin= 0.161227391505392E-02 IErMin= 2 ErrMin= 1.65D-03
 ErrMax= 1.65D-03  0.00D+00 EMaxC= 1.00D-01 BMatC= 4.40D-05 BMatP= 5.92D-04
 IDIUse=3 WtCom= 9.84D-01 WtEn= 1.65D-02
 Coeff-Com: -0.345D+00 0.135D+01
 Coeff-En:   0.000D+00 0.100D+01
 Coeff:     -0.340D+00 0.134D+01
 Gap=     0.620 Goal=   None    Shift=    0.000
 RMSDP=1.77D-03 MaxDP=4.74D-03 DE=-1.41D-03 OVMax= 7.11D-03

 Cycle   3  Pass 1  IDiag  3:
 E= 0.147159204134084E-02 Delta-E=       -0.000140681874 Rises=F Damp=F
 DIIS: error= 2.31D-04 at cycle   3 NSaved=   3.
 NSaved= 3 IEnMin= 3 EnMin= 0.147159204134084E-02 IErMin= 3 ErrMin= 2.31D-04
 ErrMax= 2.31D-04  0.00D+00 EMaxC= 1.00D-01 BMatC= 9.16D-07 BMatP= 4.40D-05
 IDIUse=3 WtCom= 9.98D-01 WtEn= 2.31D-03
 Coeff-Com:  0.215D+00-0.885D+00 0.167D+01
 Coeff-En:   0.000D+00 0.000D+00 0.100D+01
 Coeff:      0.215D+00-0.883D+00 0.167D+01
 Gap=     0.619 Goal=   None    Shift=    0.000
 RMSDP=4.22D-04 MaxDP=9.47D-04 DE=-1.41D-04 OVMax= 1.96D-03

 Cycle   4  Pass 1  IDiag  3:
 E= 0.146692982779228E-02 Delta-E=       -0.000004662214 Rises=F Damp=F
 DIIS: error= 1.69D-05 at cycle   4 NSaved=   4.
 NSaved= 4 IEnMin= 4 EnMin= 0.146692982779228E-02 IErMin= 4 ErrMin= 1.69D-05
 ErrMax= 1.69D-05  0.00D+00 EMaxC= 1.00D-01 BMatC= 6.54D-09 BMatP= 9.16D-07
 IDIUse=1 WtCom= 1.00D+00 WtEn= 0.00D+00
 Coeff-Com: -0.149D+00 0.615D+00-0.118D+01 0.171D+01
 Coeff:     -0.149D+00 0.615D+00-0.118D+01 0.171D+01
 Gap=     0.619 Goal=   None    Shift=    0.000
 RMSDP=3.72D-05 MaxDP=1.11D-04 DE=-4.66D-06 OVMax= 0.00D+00

 Cycle   5  Pass 1  IDiag  3:
 E= 0.146689428994407E-02 Delta-E=       -0.000000035538 Rises=F Damp=F
 DIIS: error= 1.89D-06 at cycle   5 NSaved=   5.
 NSaved= 5 IEnMin= 5 EnMin= 0.146689428994407E-02 IErMin= 5 ErrMin= 1.89D-06
 ErrMax= 1.89D-06  0.00D+00 EMaxC= 1.00D-01 BMatC= 5.90D-11 BMatP= 6.54D-09
 IDIUse=1 WtCom= 1.00D+00 WtEn= 0.00D+00
 Coeff-Com:  0.180D-01-0.749D-01 0.143D+00-0.253D+00 0.117D+01
 Coeff:      0.180D-01-0.749D-01 0.143D+00-0.253D+00 0.117D+01
 Gap=     0.619 Goal=   None    Shift=    0.000
 RMSDP=2.83D-06 MaxDP=7.78D-06 DE=-3.55D-08 OVMax= 1.15D-05

 Cycle   6  Pass 1  IDiag  3:
 E= 0.146689402875033E-02 Delta-E=       -0.000000000261 Rises=F Damp=F
 DIIS: error= 5.35D-07 at cycle   6 NSaved=   6.
 NSaved= 6 IEnMin= 6 EnMin= 0.146689402875033E-02 IErMin= 6 ErrMin= 5.35D-07
 ErrMax= 5.35D-07  0.00D+00 EMaxC= 1.00D-01 BMatC= 3.57D-12 BMatP= 5.90D-11
 IDIUse=1 WtCom= 1.00D+00 WtEn= 0.00D+00
 Coeff-Com: -0.334D-02 0.140D-01-0.265D-01 0.528D-01-0.405D+00 0.137D+01
 Coeff:     -0.334D-02 0.140D-01-0.265D-01 0.528D-01-0.405D+00 0.137D+01
 Gap=     0.619 Goal=   None    Shift=    0.000
 RMSDP=7.07D-07 MaxDP=2.81D-06 DE=-2.61D-10 OVMax= 0.00D+00

 Cycle   7  Pass 1  IDiag  3:
 E= 0.146689401115196E-02 Delta-E=       -0.000000000018 Rises=F Damp=F
 DIIS: error= 1.28D-07 at cycle   7 NSaved=   7.
 NSaved= 7 IEnMin= 7 EnMin= 0.146689401115196E-02 IErMin= 7 ErrMin= 1.28D-07
 ErrMax= 1.28D-07  0.00D+00 EMaxC= 1.00D-01 BMatC= 1.80D-13 BMatP= 3.57D-12
 IDIUse=1 WtCom= 1.00D+00 WtEn= 0.00D+00
 Coeff-Com: -0.107D-03 0.320D-03-0.857D-03-0.473D-02 0.148D+00-0.711D+00
 Coeff-Com:  0.157D+01
 Coeff:     -0.107D-03 0.320D-03-0.857D-03-0.473D-02 0.148D+00-0.711D+00
 Coeff:      0.157D+01
 Gap=     0.619 Goal=   None    Shift=    0.000
 RMSDP=1.89D-07 MaxDP=7.26D-07 DE=-1.76D-11 OVMax= 0.00D+00

 Cycle   8  Pass 1  IDiag  3:
 E= 0.146689401025313E-02 Delta-E=       -0.000000000001 Rises=F Damp=F
 DIIS: error= 8.69D-09 at cycle   8 NSaved=   8.
 NSaved= 8 IEnMin= 8 EnMin= 0.146689401025313E-02 IErMin= 8 ErrMin= 8.69D-09
 ErrMax= 8.69D-09  0.00D+00 EMaxC= 1.00D-01 BMatC= 1.37D-15 BMatP= 1.80D-13
 IDIUse=1 WtCom= 1.00D+00 WtEn= 0.00D+00
 Coeff-Com: -0.218D-04 0.177D-03-0.167D-03 0.450D-02-0.107D+00 0.505D+00
 Coeff-Com: -0.113D+01 0.173D+01
 Coeff:     -0.218D-04 0.177D-03-0.167D-03 0.450D-02-0.107D+00 0.505D+00
 Coeff:     -0.113D+01 0.173D+01
 Gap=     0.619 Goal=   None    Shift=    0.000
 RMSDP=1.74D-08 MaxDP=5.79D-08 DE=-8.99D-13 OVMax= 0.00D+00

 Cycle   9  Pass 1  IDiag  3:
 E= 0.146689401025135E-02 Delta-E=       -0.000000000000 Rises=F Damp=F
 DIIS: error= 2.49D-10 at cycle   9 NSaved=   9.
 NSaved= 9 IEnMin= 9 EnMin= 0.146689401025135E-02 IErMin= 9 ErrMin= 2.49D-10
 ErrMax= 2.49D-10  0.00D+00 EMaxC= 1.00D-01 BMatC= 1.62D-18 BMatP= 1.37D-15
 IDIUse=1 WtCom= 1.00D+00 WtEn= 0.00D+00
 Coeff-Com:  0.841D-05-0.800D-04 0.630D-04-0.231D-02 0.557D-01-0.264D+00
 Coeff-Com:  0.590D+00-0.908D+00 0.153D+01
 Coeff:      0.841D-05-0.800D-04 0.630D-04-0.231D-02 0.557D-01-0.264D+00
 Coeff:      0.590D+00-0.908D+00 0.153D+01
 Gap=     0.619 Goal=   None    Shift=    0.000
 RMSDP=5.50D-10 MaxDP=1.67D-09 DE=-1.78D-15 OVMax= 0.00D+00

 SCF Done:  E(RAM1) =  0.146689401025E-02 A.U. after    9 cycles
            NFock=  9  Conv=0.55D-09     -V/T= 1.0001
 KE=-9.879128375774D+00 PE=-1.327135386806D+01 EE= 9.044092869192D+00
 Leave Link  502 at Mon Sep  5 10:36:04 2022, MaxMem=   262144000 cpu:               0.0 elap:               0.0
 (Enter /binaries/g16/l701.exe)
 ... and contract with generalized density number  0.
 Compute integral first derivatives.
[...]
 Coeff:     -0.139D+00 0.429D+00-0.726D+00 0.745D+00-0.545D+00 0.590D+00
 Coeff:     -0.863D+00 0.151D+01
 Gap=     0.331 Goal=   None    Shift=    0.000
 RMSDP=6.89D-08 MaxDP=2.51D-07 DE=-5.45D-12 OVMax= 3.72D-07

 Cycle   9  Pass 1  IDiag  3:
 E= 0.161831533462719     Delta-E=       -0.000000000000 Rises=F Damp=F
 DIIS: error= 6.32D-09 at cycle   9 NSaved=   9.
 NSaved= 9 IEnMin= 9 EnMin= 0.161831533462719     IErMin= 9 ErrMin= 6.32D-09
 ErrMax= 6.32D-09  0.00D+00 EMaxC= 1.00D-01 BMatC= 3.66D-16 BMatP= 1.06D-14
 IDIUse=1 WtCom= 1.00D+00 WtEn= 0.00D+00
 Coeff-Com:  0.240D-01-0.739D-01 0.125D+00-0.128D+00 0.926D-01-0.997D-01
 Coeff-Com:  0.159D+00-0.438D+00 0.134D+01
 Coeff:      0.240D-01-0.739D-01 0.125D+00-0.128D+00 0.926D-01-0.997D-01
 Coeff:      0.159D+00-0.438D+00 0.134D+01
 Gap=     0.331 Goal=   None    Shift=    0.000
 RMSDP=1.11D-08 MaxDP=3.19D-08 DE=-7.82D-14 OVMax= 4.08D-08

 Cycle  10  Pass 1  IDiag  3:
 E= 0.161831533462708     Delta-E=       -0.000000000000 Rises=F Damp=F
 DIIS: error= 5.59D-10 at cycle  10 NSaved=  10.
 NSaved=10 IEnMin=10 EnMin= 0.161831533462708     IErMin=10 ErrMin= 5.59D-10
 ErrMax= 5.59D-10  0.00D+00 EMaxC= 1.00D-01 BMatC= 8.95D-18 BMatP= 3.66D-16
 IDIUse=1 WtCom= 1.00D+00 WtEn= 0.00D+00
 Coeff-Com: -0.312D-02 0.960D-02-0.163D-01 0.166D-01-0.115D-01 0.122D-01
 Coeff-Com: -0.245D-01 0.106D+00-0.466D+00 0.138D+01
 Coeff:     -0.312D-02 0.960D-02-0.163D-01 0.166D-01-0.115D-01 0.122D-01
 Coeff:     -0.245D-01 0.106D+00-0.466D+00 0.138D+01
 Gap=     0.331 Goal=   None    Shift=    0.000
 RMSDP=2.05D-09 MaxDP=5.97D-09 DE=-1.07D-14 OVMax= 0.00D+00

 SCF Done:  E(RAM1) =  0.161831533463     A.U. after   10 cycles
            NFock= 10  Conv=0.20D-08     -V/T= 1.0170
 KE=-9.540726531145D+00 PE=-1.209188501664D+01 EE= 8.462824313800D+00
 Leave Link  502 at Mon Sep  5 10:36:19 2022, MaxMem=   262144000 cpu:               0.0 elap:               0.0
 (Enter /binaries/g16/l701.exe)
 ... and contract with generalized density number  0.
 Compute integral first derivatives.
 Leave Link  701 at Mon Sep  5 10:36:19 2022, MaxMem=   262144000 cpu:               0.0 elap:               0.0
 (Enter /binaries/g16/l702.exe)
 L702 exits ... SP integral derivatives will be done elsewhere.
 Leave Link  702 at Mon Sep  5 10:36:19 2022, MaxMem=   262144000 cpu:               0.0 elap:               0.0
 (Enter /binaries/g16/l703.exe)
 Integral derivatives from FoFJK, PRISM(SPDF).
 Compute integral first derivatives, UseDBF=F ICtDFT=           0.
 Calling FoFJK, ICntrl=      2127 FMM=F ISym2X=0 I1Cent= 0 IOpClX= 0 NMat=1 NMatS=1 NMatT=0.
 FoFJK:  IHMeth= 8 ICntrl=    2127 DoSepK=F KAlg= 0 I1Cent=           0 FoldK=F
 IRaf=         0 NMat=       1 IRICut=       1 DoRegI=T DoRafI=F ISym2E= 0 IDoP0=3 IntGTp=3.
 FoFCou: FMM=F IPFlag=           0 FMFlag=      100000 FMFlg1=         800
         NFxFlg=           0 DoJE=F BraDBF=F KetDBF=F FulRan=T
         wScrn=  0.000000 ICntrl=      2127 IOpCl=  0 I1Cent=           0 NGrid=           0
         NMat0=    1 NMatS0=      1 NMatT0=    0 NMatD0=    1 NMtDS0=    0 NMtDT0=    0
 Symmetry not used in FoFCou.
 Leave Link  703 at Mon Sep  5 10:36:19 2022, MaxMem=   262144000 cpu:               0.0 elap:               0.0
 (Enter /binaries/g16/l716.exe)
 Dipole        =-2.62495790D-01-5.31104719D-05 7.23752579D-01
 ***** Axes restored to original set *****
 -------------------------------------------------------------------
 Center     Atomic                   Forces (Hartrees/Bohr)
 Number     Number              X              Y              Z
 -------------------------------------------------------------------
      1        6          -0.000419607    0.001992072    0.000531634
      2        1           0.002631520   -0.005136156    0.001318844
      3        1          -0.002320145    0.003214449   -0.001908639
      4        1           0.000051765   -0.000021110    0.000016893
      5        1           0.000056466   -0.000049255    0.000041268
 -------------------------------------------------------------------
 Cartesian Forces:  Max     0.005136156 RMS     0.001980586
 Leave Link  716 at Mon Sep  5 10:36:19 2022, MaxMem=   262144000 cpu:               0.0 elap:               0.0
 (Enter /binaries/g16/l103.exe)

 GradGradGradGradGradGradGradGradGradGradGradGradGradGradGradGradGradGrad
 Berny optimization.
 Using GEDIIS/GDIIS optimizer.
 FormGI is forming the generalized inverse of G from B-inverse, IUseBI=4.
 Internal  Forces:  Max     0.004144417 RMS     0.001279733
 Search for a local minimum.
 Step number   9 out of a maximum of   25 on scan point    11 out of    11
 All quantities printed in internal units (Hartrees-Bohrs-Radians)
 RMS Force = .38347D-04 SwitMx=.10000D-02 MixMth= 2
 Mixed Optimization -- En-DIIS/RFO-DIIS
 Swapping is turned off.
 Update second derivatives using D2CorX and points    3    4    5    6    7
                                                      8    9
 DE= -8.85D-07 DEPred=-7.38D-07 R= 1.20D+00
 Trust test= 1.20D+00 RLast= 8.79D-03 DXMaxT set to 9.47D-01
 The second derivative matrix:
                          R1        R2        R3        R4        A1
           R1           0.18009
           R2          -0.21744   0.29217
           R3           0.00819  -0.00808   0.37784
           R4           0.00233  -0.00142   0.01918   0.39395
           A1          -0.05269   0.10430  -0.01650  -0.02382   0.23213
           A2          -0.00233   0.01167   0.00466  -0.01365   0.02972
           A3          -0.02178   0.04310  -0.00747   0.01102   0.02579
           A4           0.03481  -0.04060   0.00794   0.00452   0.00279
           A5           0.03833  -0.04789  -0.00806   0.00365  -0.03152
           A6           0.00656  -0.00823   0.03154   0.03664  -0.00763
           A7           0.04437  -0.08243   0.00722   0.02607  -0.05951
           D1           0.08467  -0.12324   0.00865   0.00616  -0.08205
           D2          -0.06850   0.10022   0.01358   0.00845   0.06073
           D3          -0.03425   0.05255   0.01462   0.00913   0.01418
           D4           0.03425  -0.04766   0.00103   0.00068  -0.04654
                          A2        A3        A4        A5        A6
           A2           0.06842
           A3          -0.02372   0.07595
           A4           0.00757   0.00502   0.05310
           A5           0.00221   0.00183  -0.00783   0.05648
           A6          -0.01916   0.00050  -0.00152   0.00888   0.11570
           A7          -0.04049  -0.02132  -0.01883   0.02443   0.00999
           D1          -0.00837  -0.03252  -0.00760   0.04022   0.00028
           D2           0.02873   0.00871  -0.01486  -0.00914   0.00234
           D3           0.00047  -0.00167  -0.01820  -0.00764   0.00102
           D4          -0.02826  -0.01038  -0.00335   0.00149  -0.00133
                          A7        D1        D2        D3        D4
           A7           0.24215
           D1           0.05947   0.08246
           D2          -0.04121  -0.04342   0.05752
           D3          -0.00001  -0.01267   0.01699   0.02852
           D4           0.04121   0.03075  -0.03553   0.00654   0.04706
 ITU=  0  1  1  1  1  1 -1  1  0
     Eigenvalues ---    0.00474   0.02549   0.06895   0.08932   0.11653
     Eigenvalues ---    0.36667   0.41425   0.632891000.000001000.00000
     Eigenvalues --- 1000.000001000.000001000.000001000.000001000.00000
 En-DIIS/RFO-DIIS/Sim-DIIS IScMMF=       -3 using points:     9    8    7    6
 RFO step:  Lambda=-2.42840678D-07.
 NNeg= 0 NGDIIS= 4 SimSw=  2.50D-01 Rises=F DC= -8.85D-07 SmlDif=  1.00D-05
 NRisDI= 0 DoIntr=F SqrtH=F CThrHd= 10.0 CDAdj=  3.0
 RMS Error=  0.6414642985D-03 NUsed= 4 OKEnD=F EnDIS=F
 InvSVX:  RCond= 1.35D-06 Info=           0 Equed=N FErr=  1.53D-14 BErr=  7.00D-17
 DidBck=F Rises=F RFO-DIIS coefs:    1.52883   -0.43616   -0.12021    0.02754
 Iteration  1 RMS(Cart)=  0.00046419 RMS(Int)=  0.00000219
 Iteration  2 RMS(Cart)=  0.00000032 RMS(Int)=  0.00000214
 Iteration  1 RMS(Cart)=  0.00000058 RMS(Int)=  0.00000055
 ITry= 1 IFail=0 DXMaxC= 1.07D-03 DCOld= 1.00D+10 DXMaxT= 9.47D-01 DXLimC= 3.00D+00 Rises=F
 Variable       Old X    -DE/DX   Delta X   Delta X   Delta X     New X
                                 (Linear)    (Quad)   (Total)
    R1        2.86581   0.00097   0.00044   0.00008   0.00052   2.86633
    R2        3.87099  -0.00071   0.00066  -0.00011   0.00055   3.87154
    R3        2.08378  -0.00000   0.00006  -0.00012  -0.00005   2.08372
    R4        2.08391  -0.00005  -0.00008  -0.00011  -0.00018   2.08373
    A1        0.26967   0.00139   0.00002  -0.00004  -0.00003   0.26965
    A2        1.81195   0.00026  -0.00071  -0.00000  -0.00072   1.81123
    A3        1.81224   0.00040  -0.00094  -0.00005  -0.00099   1.81125
    A4        1.66377  -0.00032  -0.00062   0.00008  -0.00054   1.66323
    A5        1.66447  -0.00056  -0.00096  -0.00007  -0.00103   1.66343
    A6        1.93459  -0.00003   0.00079   0.00009   0.00087   1.93546
    A7        2.26888  -0.00414  -0.00000   0.00000  -0.00000   2.26887
    D1       -0.22874  -0.00131  -0.00005  -0.00001  -0.00006  -0.22880
    D2        0.22903   0.00105  -0.00003  -0.00007  -0.00010   0.22893
    D3        1.93578   0.00048  -0.00097   0.00001  -0.00096   1.93482
    D4        1.70676  -0.00057  -0.00094   0.00007  -0.00086   1.70589
         Item               Value     Threshold  Converged?
 Maximum Force            0.000089     0.000450     YES
 RMS     Force            0.000038     0.000300     YES
 Maximum Displacement     0.001067     0.001800     YES
 RMS     Displacement     0.000464     0.001200     YES
 Predicted change in Energy=-1.211905D-07
 Optimization completed.
    -- Stationary point found.
                           ----------------------------
                           !   Optimized Parameters   !
                           ! (Angstroms and Degrees)  !
 --------------------------                            --------------------------
 ! Name  Definition              Value          Derivative Info.                !
 --------------------------------------------------------------------------------
 ! R1    R(1,2)                  1.5165         -DE/DX =    0.001               !
 ! R2    R(1,3)                  2.0484         -DE/DX =   -0.0007              !
 ! R3    R(1,4)                  1.1027         -DE/DX =    0.0                 !
 ! R4    R(1,5)                  1.1028         -DE/DX =    0.0                 !
 ! A1    A(2,1,3)               15.4512         -DE/DX =    0.0014              !
 ! A2    A(2,1,4)              103.8171         -DE/DX =    0.0003              !
 ! A3    A(2,1,5)              103.8339         -DE/DX =    0.0004              !
 ! A4    A(3,1,4)               95.3268         -DE/DX =   -0.0003              !
 ! A5    A(3,1,5)               95.3669         -DE/DX =   -0.0006              !
 ! A6    A(4,1,5)              110.8436         -DE/DX =    0.0                 !
 ! A7    A(1,2,3)              129.997          -DE/DX =   -0.0041              !
 ! D1    D(2,1,4,3)            -13.1056         -DE/DX =   -0.0013              !
 ! D2    D(2,1,5,3)             13.1222         -DE/DX =    0.0011              !
 ! D3    D(2,1,5,4)            110.9122         -DE/DX =    0.0005              !
 ! D4    D(3,1,5,4)             97.79           -DE/DX =   -0.0006              !
 --------------------------------------------------------------------------------
 Lowest energy point so far.  Saving SCF results.
 Summary of Optimized Potential Surface Scan (add -0.0 to energies):
                           1         2         3         4         5
     Eigenvalues --    -0.01402  -0.00711   0.01158   0.03711   0.06469
           R1           1.11177   1.09104   1.06492   1.04326   1.02981
           R2           1.11130   1.15348   1.21105   1.27340   1.33658
           R3           1.11182   1.10503   1.09984   1.09573   1.09246
           R4           1.11164   1.10464   1.09969   1.09584   1.09248
           A1         109.58983  93.63842  80.38018  69.13521  59.38367
           A2         109.41417 113.36134 116.25768 118.39007 119.68388
           A3         109.45759 113.43431 116.32553 118.32819 119.65811
           A4         109.46097 111.87038 113.23662 113.87613 113.90629
           A5         109.47962 111.96262 113.31198 113.81892 113.92344
           A6         109.42500 111.45585 113.29439 114.96867 116.51765
           A7          35.19658  44.67636  54.15649  63.63656  73.11668
           D1        -120.10404-104.35127 -90.51684 -78.25780 -67.13540
           D2         120.14211 104.44042  90.58390  78.21054  67.13659
           D3        -119.89358-129.39852-138.62836-147.87240-157.07184
           D4         119.96431 126.16107 130.78774 133.91707 135.79157
                           6         7         8         9        10
     Eigenvalues --     0.09111   0.11458   0.13409   0.14900   0.15874
           R1           1.02583   1.03124   1.04764   1.08091   1.15819
           R2           1.40152   1.47122   1.54594   1.62705   1.72891
           R3           1.08966   1.08759   1.08642   1.08708   1.09158
           R4           1.08964   1.08744   1.08636   1.08710   1.09156
           A1          50.86461  43.45734  36.84283  30.64274  24.23624
           A2         120.28818 120.25548 119.55269 117.88129 114.04581
           A3         120.35204 120.40986 119.68547 117.82437 114.01148
           A4         113.41630 112.32583 110.66648 108.01786 103.77083
           A5         113.46075 112.38903 110.63648 108.03606 103.77180
           A6         118.00007 119.28179 120.08343 119.83954 117.23434
           A7          82.59671  92.07665 101.55678 111.03681 120.51685
           D1         -57.07246 -48.01686 -39.70246 -31.62897 -23.26188
           D2          57.09976  48.04737  39.67678  31.65119  23.27671
           D3        -166.72871-177.36251 170.52043 155.83137 136.96701
           D4         136.17153 134.59011 130.84365 124.18018 113.69030
                          11
     Eigenvalues --     0.16183
           R1           1.51652
           R2           2.04844
           R3           1.10269
           R4           1.10276
           A1          15.45123
           A2         103.81705
           A3         103.83386
           A4          95.32677
           A5          95.36691
           A6         110.84362
           A7         129.99699
           D1         -13.10562
           D2          13.12221
           D3         110.91221
           D4          97.79000
 Largest change from initial coordinates is atom    3       1.283 Angstoms.
 GradGradGradGradGradGradGradGradGradGradGradGradGradGradGradGradGradGrad

 Leave Link  103 at Mon Sep  5 10:36:19 2022, MaxMem=   262144000 cpu:               0.0 elap:               0.0
 (Enter /binaries/g16/l202.exe)
                          Input orientation:                          
 ---------------------------------------------------------------------
 Center     Atomic      Atomic             Coordinates (Angstroms)
 Number     Number       Type             X           Y           Z
 ---------------------------------------------------------------------
      1          6           0        4.016556    3.431641   -0.582363
      2          1           0        4.859156    3.200225    0.657118
      3          1           0        5.026038    3.646016    1.187129
      4          1           0        4.519343    4.271843   -1.089496
      5          1           0        3.038007    3.744274   -0.181388
 ---------------------------------------------------------------------
                    Distance matrix (angstroms):
                    1          2          3          4          5
     1  C    0.000000
     2  H    1.516523   0.000000
     3  H    2.048442   0.712384   0.000000
     4  H    1.102686   2.077138   2.414834   0.000000
     5  H    1.102760   2.077419   2.415526   1.815860   0.000000
 Stoichiometry    CH4
 Framework group  C1[X(CH4)]
 Deg. of freedom     9
 Full point group                 C1      NOp   1
 RotChk:  IX=3 Diff= 9.09D-16
 Largest Abelian subgroup         C1      NOp   1
 Largest concise Abelian subgroup C1      NOp   1
                         Standard orientation:                         
 ---------------------------------------------------------------------
 Center     Atomic      Atomic             Coordinates (Angstroms)
 Number     Number       Type             X           Y           Z
 ---------------------------------------------------------------------
      1          6           0        0.305653   -0.000022   -0.150607
      2          1           0       -1.208311    0.000453   -0.238678
      3          1           0       -1.697115    0.000021    0.279551
      4          1           0        0.535311   -0.908100    0.431259
      5          1           0        0.536198    0.907759    0.431512
 ---------------------------------------------------------------------
 Rotational constants (GHZ):         211.5336082          76.5654396          67.0740436
 Leave Link  202 at Mon Sep  5 10:36:19 2022, MaxMem=   262144000 cpu:               0.0 elap:               0.0
 (Enter /binaries/g16/l601.exe)
 Copying SCF densities to generalized density rwf, IOpCl= 0 IROHF=0.

 **********************************************************************

            Population analysis using the SCF Density.

 **********************************************************************

 Orbital symmetries:
       Occupied  (A) (A) (A) (A)
       Virtual   (A) (A) (A) (A)
 The electronic state is 1-A.
 Alpha  occ. eigenvalues --   -0.97100  -0.56122  -0.49578  -0.32547
 Alpha virt. eigenvalues --    0.00594   0.15618   0.15996   0.16894
          Condensed to atoms (all electrons):
               1          2          3          4          5
     1  C    4.133079   0.000000   0.000000   0.000000   0.000000
     2  H    0.000000   0.911690   0.000000   0.000000   0.000000
     3  H    0.000000   0.000000   0.977531   0.000000   0.000000
     4  H    0.000000   0.000000   0.000000   0.988855   0.000000
     5  H    0.000000   0.000000   0.000000   0.000000   0.988846
 Mulliken charges:
               1
     1  C   -0.133079
     2  H    0.088310
     3  H    0.022469
     4  H    0.011145
     5  H    0.011154
 Sum of Mulliken charges =   0.00000
 Mulliken charges with hydrogens summed into heavy atoms:
               1
     1  C    0.000000
 Charge=              0.0000 electrons
 Dipole moment (field-independent basis, Debye):
    X=             -0.6672    Y=             -0.0001    Z=              1.8396  Tot=              1.9569
 N-N= 1.333161876744D+01 E-N=-1.209188501806D+01  KE=-9.540726531145D+00
 Leave Link  601 at Mon Sep  5 10:36:19 2022, MaxMem=   262144000 cpu:               0.0 elap:               0.0
 (Enter /binaries/g16/l9999.exe)
 Unable to Open any file for archive entry.
 1\1\GINC-WEB\Scan\RAM1\ZDO\C1H4\CALCUS\05-Sep-2022\0\\#p opt(modredund
 ant) AM1\\File created by ccinput\\0,1\C,4.0165561728,3.4316414823,-0.
 5823630278\H,4.8591562714,3.2002251185,0.6571183981\H,5.0260382582,3.6
 460162502,1.1871293455\H,4.5193427562,4.2718429627,-1.0894963662\H,3.0
 380065415,3.7442741863,-0.1813883495\\Version=ES64L-G16RevC.01\State=1
 -A\HF=-0.014024,-0.0071063,0.0115825,0.0371076,0.0646862,0.0911069,0.1
 145751,0.1340879,0.1490045,0.1587383,0.1618315\RMSD=7.269e-10,3.765e-0
 9,3.730e-09,4.663e-09,3.041e-09,8.137e-09,2.011e-09,9.655e-09,6.546e-0
 9,1.879e-09,2.049e-09\PG=C01 [X(C1H4)]\\@
 The archive entry for this job was punched.


 THE MORE ACCURATE THE CALCULATIONS BECOME, THE MORE THE CONCEPTS
 TEND TO VANISH INTO THIN AIR.
     -- R.S. MULLIKEN, J.C.P. 43,S2(1965)
 Job cpu time:       0 days  0 hours  0 minutes 16.2 seconds.
 Elapsed time:       0 days  0 hours  0 minutes 15.0 seconds.
 File lengths (MBytes):  RWF=      6 Int=      0 D2E=      0 Chk=      2 Scr=      1
 Normal termination of Gaussian 16 at Mon Sep  5 10:36:19 2022.
