5
 energy: -4.175218513486 gnorm: 0.000069187490 xtb: 6.4.1 (afa7bdf)
C         4.29182096873168    3.65880137644743   -0.00180316754018
H         4.65255391369700    2.63847707300832   -0.00066336876986
H         4.65348879519865    4.17027688955325    0.88068584871993
H         4.65163080186755    4.16764916621386   -0.88655597203350
H         3.20960552050512    3.65879549477714   -0.00066334037639
