5
 energy: -4.174846013020 gnorm: 0.017368182937 xtb: 6.4.1 (afa7bdf)
C         4.29180000000000    3.65880000000000    0.00000000000000
H         4.64850000000000    2.65000000000000    0.00000000000000
H         4.64850000000000    4.16320000000000    0.87070000000000
H         4.64850000000000    4.16320000000000   -0.87970000000000
H         3.22180000000000    3.65880000000000    0.00000000000000
5
 energy: -4.175208739797 gnorm: 0.002856025406 xtb: 6.4.1 (afa7bdf)
C         4.29173946052848    3.65871266008698   -0.00094949039166
H         4.65200435259662    2.64032786870966   -0.00083697351743
H         4.65281439307657    4.16930261993477    0.87901341400543
H         4.65102778293671    4.16677613951045   -0.88538993588197
H         3.21151401086163    3.65888071175814   -0.00083701421437
5
 energy: -4.175218428216 gnorm: 0.000335775259 xtb: 6.4.1 (afa7bdf)
C         4.29178978648400    3.65876172679826   -0.00151676135204
H         4.65254944714997    2.63858130549005   -0.00078495442289
H         4.65349732196603    4.17028726399460    0.88056445794362
H         4.65155715026197    4.16754442962713   -0.88647717801639
H         3.20970629413804    3.65882527408996   -0.00078556415230
5
 energy: -4.175218513486 gnorm: 0.000069330891 xtb: 6.4.1 (afa7bdf)
C         4.29182096873168    3.65880137644743   -0.00180316754018
H         4.65255391369700    2.63847707300832   -0.00066336876986
H         4.65348879519865    4.17027688955325    0.88068584871993
H         4.65163080186755    4.16764916621386   -0.88655597203350
H         3.20960552050512    3.65879549477714   -0.00066334037639
