
                                 *****************
                                 * O   R   C   A *
                                 *****************

                                            #,                                       
                                            ###                                      
                                            ####                                     
                                            #####                                    
                                            ######                                   
                                           ########,                                 
                                     ,,################,,,,,                         
                               ,,#################################,,                 
                          ,,##########################################,,             
                       ,#########################################, ''#####,          
                    ,#############################################,,   '####,        
                  ,##################################################,,,,####,       
                ,###########''''           ''''###############################       
              ,#####''   ,,,,##########,,,,          '''####'''          '####       
            ,##' ,,,,###########################,,,                        '##       
           ' ,,###''''                  '''############,,,                           
         ,,##''                                '''############,,,,        ,,,,,,###''
      ,#''                                            '''#######################'''  
     '                                                          ''''####''''         
             ,#######,   #######,   ,#######,      ##                                
            ,#'     '#,  ##    ##  ,#'     '#,    #''#        ######   ,####,        
            ##       ##  ##   ,#'  ##            #'  '#       #        #'  '#        
            ##       ##  #######   ##           ,######,      #####,   #    #        
            '#,     ,#'  ##    ##  '#,     ,#' ,#      #,         ##   #,  ,#        
             '#######'   ##     ##  '#######'  #'      '#     #####' # '####'        



                  #######################################################
                  #                        -***-                        #
                  #          Department of theory and spectroscopy      #
                  #    Directorship and core code : Frank Neese         #
                  #        Max Planck Institute fuer Kohlenforschung    #
                  #                Kaiser Wilhelm Platz 1               #
                  #                 D-45470 Muelheim/Ruhr               #
                  #                      Germany                        #
                  #                                                     #
                  #                  All rights reserved                #
                  #                        -***-                        #
                  #######################################################


                         Program Version 5.0.3 -  RELEASE  -


 With contributions from (in alphabetic order):
   Daniel Aravena         : Magnetic Suceptibility
   Michael Atanasov       : Ab Initio Ligand Field Theory (pilot matlab implementation)
   Alexander A. Auer      : GIAO ZORA, VPT2 properties, NMR spectrum
   Ute Becker             : Parallelization
   Giovanni Bistoni       : ED, misc. LED, open-shell LED, HFLD
   Martin Brehm           : Molecular dynamics
   Dmytro Bykov           : SCF Hessian
   Vijay G. Chilkuri      : MRCI spin determinant printing, contributions to CSF-ICE
   Dipayan Datta          : RHF DLPNO-CCSD density
   Achintya Kumar Dutta   : EOM-CC, STEOM-CC
   Dmitry Ganyushin       : Spin-Orbit,Spin-Spin,Magnetic field MRCI
   Miquel Garcia          : C-PCM and meta-GGA Hessian, CC/C-PCM, Gaussian charge scheme
   Yang Guo               : DLPNO-NEVPT2, F12-NEVPT2, CIM, IAO-localization
   Andreas Hansen         : Spin unrestricted coupled pair/coupled cluster methods
   Benjamin Helmich-Paris : MC-RPA, TRAH-SCF, COSX integrals
   Lee Huntington         : MR-EOM, pCC
   Robert Izsak           : Overlap fitted RIJCOSX, COSX-SCS-MP3, EOM
   Marcus Kettner         : VPT2
   Christian Kollmar      : KDIIS, OOCD, Brueckner-CCSD(T), CCSD density, CASPT2, CASPT2-K
   Simone Kossmann        : Meta GGA functionals, TD-DFT gradient, OOMP2, MP2 Hessian
   Martin Krupicka        : Initial AUTO-CI
   Lucas Lang             : DCDCAS
   Marvin Lechner         : AUTO-CI (C++ implementation), FIC-MRCC
   Dagmar Lenk            : GEPOL surface, SMD
   Dimitrios Liakos       : Extrapolation schemes; Compound Job, initial MDCI parallelization
   Dimitrios Manganas     : Further ROCIS development; embedding schemes
   Dimitrios Pantazis     : SARC Basis sets
   Anastasios Papadopoulos: AUTO-CI, single reference methods and gradients
   Taras Petrenko         : DFT Hessian,TD-DFT gradient, ASA, ECA, R-Raman, ABS, FL, XAS/XES, NRVS
   Peter Pinski           : DLPNO-MP2, DLPNO-MP2 Gradient
   Christoph Reimann      : Effective Core Potentials
   Marius Retegan         : Local ZFS, SOC
   Christoph Riplinger    : Optimizer, TS searches, QM/MM, DLPNO-CCSD(T), (RO)-DLPNO pert. Triples
   Tobias Risthaus        : Range-separated hybrids, TD-DFT gradient, RPA, STAB
   Michael Roemelt        : Original ROCIS implementation
   Masaaki Saitow         : Open-shell DLPNO-CCSD energy and density
   Barbara Sandhoefer     : DKH picture change effects
   Avijit Sen             : IP-ROCIS
   Kantharuban Sivalingam : CASSCF convergence, NEVPT2, FIC-MRCI
   Bernardo de Souza      : ESD, SOC TD-DFT
   Georgi Stoychev        : AutoAux, RI-MP2 NMR, DLPNO-MP2 response
   Willem Van den Heuvel  : Paramagnetic NMR
   Boris Wezisla          : Elementary symmetry handling
   Frank Wennmohs         : Technical directorship


 We gratefully acknowledge several colleagues who have allowed us to
 interface, adapt or use parts of their codes:
   Stefan Grimme, W. Hujo, H. Kruse, P. Pracht,  : VdW corrections, initial TS optimization,
                  C. Bannwarth, S. Ehlert          DFT functionals, gCP, sTDA/sTD-DF
   Ed Valeev, F. Pavosevic, A. Kumar             : LibInt (2-el integral package), F12 methods
   Garnet Chan, S. Sharma, J. Yang, R. Olivares  : DMRG
   Ulf Ekstrom                                   : XCFun DFT Library
   Mihaly Kallay                                 : mrcc  (arbitrary order and MRCC methods)
   Jiri Pittner, Ondrej Demel                    : Mk-CCSD
   Frank Weinhold                                : gennbo (NPA and NBO analysis)
   Christopher J. Cramer and Donald G. Truhlar   : smd solvation model
   Lars Goerigk                                  : TD-DFT with DH, B97 family of functionals
   V. Asgeirsson, H. Jonsson                     : NEB implementation
   FAccTs GmbH                                   : IRC, NEB, NEB-TS, DLPNO-Multilevel, CI-OPT
                                                   MM, QMMM, 2- and 3-layer-ONIOM, Crystal-QMMM,
                                                   LR-CPCM, SF, NACMEs, symmetry and pop. for TD-DFT,
                                                   nearIR, NL-DFT gradient (VV10), updates on ESD,
                                                   ML-optimized integration grids
   S Lehtola, MJT Oliveira, MAL Marques          : LibXC Library
   Liviu Ungur et al                             : ANISO software


 Your calculation uses the libint2 library for the computation of 2-el integrals
 For citations please refer to: http://libint.valeyev.net

 Your ORCA version has been built with support for libXC version: 5.1.0
 For citations please refer to: https://tddft.org/programs/libxc/

 This ORCA versions uses:
   CBLAS   interface :  Fast vector & matrix operations
   LAPACKE interface :  Fast linear algebra routines
   SCALAPACK package :  Parallel linear algebra routines
   Shared memory     :  Shared parallel matrices
   BLAS/LAPACK       :  OpenBLAS 0.3.15  USE64BITINT DYNAMIC_ARCH NO_AFFINITY Zen SINGLE_THREADED
        Core in use  :  Zen
   Copyright (c) 2011-2014, The OpenBLAS Project


XCFun DFT library Copyright 2009-2010 Ulf Ekstrom and contributors.
See http://admol.org/xcfun for more information.
This is free software; see the source code for copying conditions.
There is ABSOLUTELY NO WARRANTY; not even for MERCHANTABILITY or FITNESS FOR A PARTICULAR PURPOSE.
For details see the documentation.
Scientific users of this library should cite U. Ekstrom, L. Visscher, R. Bast, A. J. Thorvaldsen and K. Ruud;
J.Chem.Theor.Comp. 2010, DOI: 10.1021/ct100117s
XCFun Version 0.99 


Information: The global flag for chemical shieldings has been found
             ==>> will calculate the chemical shieldings for all atoms in the system

================================================================================

----- Orbital basis set information -----
Your calculation utilizes the basis: def2-SVP
   F. Weigend and R. Ahlrichs, Phys. Chem. Chem. Phys. 7, 3297 (2005).

----- AuxJ basis set information -----
Your calculation utilizes the auxiliary basis: def2/J
   F. Weigend, Phys. Chem. Chem. Phys. 8, 1057 (2006).

================================================================================
                                        WARNINGS
                       Please study these warnings very carefully!
================================================================================


WARNING: Minnesota functionals are quite sensitive to the integration grid.
         see SE Wheeler, KN Houk, JCTC 2010, 6, 395,
             N Mardirossian, M Head-Gordon, JCTC 2016, 12, 4303.
         DEFGRID3 seems to be a minimum grid for reliable results with these functionals!
  ===> : Please increase the integration grid!


INFO   : the flag for use of the SHARK integral package has been found!

================================================================================
                                       INPUT FILE
================================================================================
NAME = calc.inp
|  1> !NMR M062X Def2-SVP def2/J
|  2> *xyz 0 1
|  3> C   -1.31970000  -0.64380000   0.00000000
|  4> H   -0.96310000  -1.65260000   0.00000000
|  5> H   -0.96310000  -0.13940000  -0.87370000
|  6> H   -2.38970000  -0.64380000   0.00000000
|  7> C   -0.80640000   0.08220000   1.25740000
|  8> H   -1.16150000   1.09160000   1.25640000
|  9> H   -1.16470000  -0.42110000   2.13110000
| 10> O    0.62360000   0.07990000   1.25870000
| 11> H    0.94410000   0.53240000   2.04240000
| 12> *
| 13> %pal
| 14> nprocs 1
| 15> endd                         ****END OF INPUT****
================================================================================

                       ****************************
                       * Single Point Calculation *
                       ****************************

---------------------------------
CARTESIAN COORDINATES (ANGSTROEM)
---------------------------------
  C     -1.319700   -0.643800    0.000000
  H     -0.963100   -1.652600    0.000000
  H     -0.963100   -0.139400   -0.873700
  H     -2.389700   -0.643800    0.000000
  C     -0.806400    0.082200    1.257400
  H     -1.161500    1.091600    1.256400
  H     -1.164700   -0.421100    2.131100
  O      0.623600    0.079900    1.258700
  H      0.944100    0.532400    2.042400

----------------------------
CARTESIAN COORDINATES (A.U.)
----------------------------
  NO LB      ZA    FRAG     MASS         X           Y           Z
   0 C     6.0000    0    12.011   -2.493872   -1.216606    0.000000
   1 H     1.0000    0     1.008   -1.819995   -3.122961    0.000000
   2 H     1.0000    0     1.008   -1.819995   -0.263428   -1.651054
   3 H     1.0000    0     1.008   -4.515879   -1.216606    0.000000
   4 C     6.0000    0    12.011   -1.523875    0.155335    2.376142
   5 H     1.0000    0     1.008   -2.194917    2.062825    2.374252
   6 H     1.0000    0     1.008   -2.200964   -0.795764    4.027195
   7 O     8.0000    0    15.999    1.178433    0.150989    2.378598
   8 H     1.0000    0     1.008    1.784090    1.006090    3.859577

--------------------------------
INTERNAL COORDINATES (ANGSTROEM)
--------------------------------
 C      0   0   0     0.000000000000     0.00000000     0.00000000
 H      1   0   0     1.069972429551     0.00000000     0.00000000
 H      1   2   0     1.070016172775   109.47365663     0.00000000
 H      1   2   3     1.070000000000   109.46795617   119.99448050
 C      1   2   3     1.540002483764   109.47463662   239.99292213
 H      5   1   2     1.070039891780   109.47144706   179.89220877
 H      5   1   2     1.070066105435   109.47039838   299.89192516
 O      5   1   2     1.430002440557   109.46886720    59.89046141
 H      8   5   1     0.960032390079   109.50118480   179.99961450

---------------------------
INTERNAL COORDINATES (A.U.)
---------------------------
 C      0   0   0     0.000000000000     0.00000000     0.00000000
 H      1   0   0     2.021954862698     0.00000000     0.00000000
 H      1   2   0     2.022037525411   109.47365663     0.00000000
 H      1   2   3     2.022006963296   109.46795617   119.99448050
 C      1   2   3     2.910182939873   109.47463662   239.99292213
 H      5   1   2     2.022082347834   109.47144706   179.89220877
 H      5   1   2     2.022131884463   109.47039838   299.89192516
 O      5   1   2     2.702312983492   109.46886720    59.89046141
 H      8   5   1     1.814198296942   109.50118480   179.99961450

---------------------
BASIS SET INFORMATION
---------------------
There are 3 groups of distinct atoms

 Group   1 Type C   : 7s4p1d contracted to 3s2p1d pattern {511/31/1}
 Group   2 Type H   : 4s1p contracted to 2s1p pattern {31/1}
 Group   3 Type O   : 7s4p1d contracted to 3s2p1d pattern {511/31/1}

Atom   0C    basis set group =>   1
Atom   1H    basis set group =>   2
Atom   2H    basis set group =>   2
Atom   3H    basis set group =>   2
Atom   4C    basis set group =>   1
Atom   5H    basis set group =>   2
Atom   6H    basis set group =>   2
Atom   7O    basis set group =>   3
Atom   8H    basis set group =>   2
---------------------------------
AUXILIARY/J BASIS SET INFORMATION
---------------------------------
There are 3 groups of distinct atoms

 Group   1 Type C   : 12s5p4d2f1g contracted to 6s4p3d1f1g pattern {711111/2111/211/2/1}
 Group   2 Type H   : 5s2p1d contracted to 3s1p1d pattern {311/2/1}
 Group   3 Type O   : 12s5p4d2f1g contracted to 6s4p3d1f1g pattern {711111/2111/211/2/1}

Atom   0C    basis set group =>   1
Atom   1H    basis set group =>   2
Atom   2H    basis set group =>   2
Atom   3H    basis set group =>   2
Atom   4C    basis set group =>   1
Atom   5H    basis set group =>   2
Atom   6H    basis set group =>   2
Atom   7O    basis set group =>   3
Atom   8H    basis set group =>   2
------------------------------------------------------------------------------
                           ORCA GTO INTEGRAL CALCULATION
                           -- RI-GTO INTEGRALS CHOSEN --
------------------------------------------------------------------------------
------------------------------------------------------------------------------
                   ___                                                        
                  /   \      - P O W E R E D   B Y -                         
                 /     \                                                     
                 |  |  |   _    _      __       _____    __    __             
                 |  |  |  | |  | |    /  \     |  _  \  |  |  /  |          
                  \  \/   | |  | |   /    \    | | | |  |  | /  /          
                 / \  \   | |__| |  /  /\  \   | |_| |  |  |/  /          
                |  |  |   |  __  | /  /__\  \  |    /   |      \           
                |  |  |   | |  | | |   __   |  |    \   |  |\   \          
                \     /   | |  | | |  |  |  |  | |\  \  |  | \   \       
                 \___/    |_|  |_| |__|  |__|  |_| \__\ |__|  \__/        
                                                                              
                      - O R C A' S   B I G   F R I E N D -                    
                                      &                                       
                       - I N T E G R A L  F E E D E R -                       
                                                                              
 v1 FN, 2020, v2 2021                                                         
------------------------------------------------------------------------------


Reading SHARK input file calc.SHARKINP.tmp ... ok
----------------------
SHARK INTEGRAL PACKAGE
----------------------

Number of atoms                             ...      9
Number of basis functions                   ...     72
Number of shells                            ...     36
Maximum angular momentum                    ...      2
Integral batch strategy                     ... SHARK/LIBINT Hybrid
RI-J (if used) integral strategy            ... SPLIT-RIJ (Revised 2003 algorithm where possible)
Printlevel                                  ...      1
Contraction scheme used                     ... SEGMENTED contraction
Coulomb Range Separation                    ... NOT USED
Exchange Range Separation                   ... NOT USED
Finite Nucleus Model                        ... NOT USED
Auxiliary Coulomb fitting basis             ... AVAILABLE
   # of basis functions in Aux-J            ...    213
   # of shells in Aux-J                     ...     75
   Maximum angular momentum in Aux-J        ...      4
Auxiliary J/K fitting basis                 ... NOT available
Auxiliary Correlation fitting basis         ... NOT available
Auxiliary 'external' fitting basis          ... NOT available
Integral threshold                          ...     1.000000e-10
Primitive cut-off                           ...     1.000000e-11
Primitive pair pre-selection threshold      ...     1.000000e-11

Calculating pre-screening integrals         ... done (  0.0 sec) Dimension = 36
Organizing shell pair data                  ... done (  0.0 sec)
Shell pair information
Total number of shell pairs                 ...       666
Shell pairs after pre-screening             ...       664
Total number of primitive shell pairs       ...      2268
Primitive shell pairs kept                  ...      1935
          la=0 lb=0:    230 shell pairs
          la=1 lb=0:    251 shell pairs
          la=1 lb=1:     78 shell pairs
          la=2 lb=0:     63 shell pairs
          la=2 lb=1:     36 shell pairs
          la=2 lb=2:      6 shell pairs

Calculating one electron integrals          ... done (  0.0 sec)
Calculating RI/J V-Matrix + Cholesky decomp.... done (  0.0 sec)
Calculating Nuclear repulsion               ... done (  0.0 sec) ENN=     81.693977406585 Eh

SHARK setup successfully completed in   0.1 seconds

Maximum memory used throughout the entire GTOINT-calculation: 9.4 MB
-------------------------------------------------------------------------------
                                 ORCA SCF
-------------------------------------------------------------------------------

------------
SCF SETTINGS
------------
Hamiltonian:
 Density Functional     Method          .... DFT(GTOs)
 Exchange Functional    Exchange        .... M062X
 Correlation Functional Correlation     .... M062X
 Gradients option       PostSCFGGA      .... off
 Hybrid DFT is turned on
   Fraction HF Exchange ScalHFX         ....  0.540000
   Scaling of DF-GGA-X  ScalDFX         ....  0.460000
   Scaling of DF-GGA-C  ScalDFC         ....  1.000000
   Scaling of DF-LDA-C  ScalLDAC        ....  1.000000
   Perturbative correction              ....  0.000000
   Density functional embedding theory  .... OFF
 RI-approximation to the Coulomb term is turned on
   Number of AuxJ basis functions       .... 213
   RIJ-COSX (HFX calculated with COS-X)).... on


General Settings:
 Integral files         IntName         .... calc
 Hartree-Fock type      HFTyp           .... RHF
 Total Charge           Charge          ....    0
 Multiplicity           Mult            ....    1
 Number of Electrons    NEL             ....   26
 Basis Dimension        Dim             ....   72
 Nuclear Repulsion      ENuc            ....     81.6939774066 Eh

Convergence Acceleration:
 DIIS                   CNVDIIS         .... on
   Start iteration      DIISMaxIt       ....    12
   Startup error        DIISStart       ....  0.200000
   # of expansion vecs  DIISMaxEq       ....     5
   Bias factor          DIISBfac        ....   1.050
   Max. coefficient     DIISMaxC        ....  10.000
 Trust-Rad. Augm. Hess. CNVTRAH         .... auto
   Auto Start mean grad. ratio tolernc. ....  1.125000
   Auto Start start iteration           ....    20
   Auto Start num. interpolation iter.  ....    10
   Max. Number of Micro iterations      ....    16
   Max. Number of Macro iterations      .... Maxiter - #DIIS iter
   Number of Davidson start vectors     ....     2
   Converg. threshold I  (grad. norm)   ....   5.000e-05
   Converg. threshold II (energy diff.) ....   1.000e-06
   Grad. Scal. Fac. for Micro threshold ....   0.100
   Minimum threshold for Micro iter.    ....   0.010
   NR start threshold (gradient norm)   ....   0.001
   Initial trust radius                 ....   0.400
   Minimum AH scaling param. (alpha)    ....   1.000
   Maximum AH scaling param. (alpha)    .... 1000.000
   Orbital update algorithm             .... Taylor
   White noise on init. David. guess    .... on
   Maximum white noise                  ....   0.010
   Quad. conv. algorithm                .... NR
 SOSCF                  CNVSOSCF        .... on
   Start iteration      SOSCFMaxIt      ....   150
   Startup grad/error   SOSCFStart      ....  0.003300
 Level Shifting         CNVShift        .... on
   Level shift para.    LevelShift      ....    0.2500
   Turn off err/grad.   ShiftErr        ....    0.0010
 Zerner damping         CNVZerner       .... off
 Static damping         CNVDamp         .... on
   Fraction old density DampFac         ....    0.7000
   Max. Damping (<1)    DampMax         ....    0.9800
   Min. Damping (>=0)   DampMin         ....    0.0000
   Turn off err/grad.   DampErr         ....    0.1000
 Fernandez-Rico         CNVRico         .... off

SCF Procedure:
 Maximum # iterations   MaxIter         ....   125
 SCF integral mode      SCFMode         .... Direct
   Integral package                     .... SHARK and LIBINT hybrid scheme
 Reset frequency        DirectResetFreq ....    20
 Integral Threshold     Thresh          ....  1.000e-10 Eh
 Primitive CutOff       TCut            ....  1.000e-11 Eh

Convergence Tolerance:
 Convergence Check Mode ConvCheckMode   .... Total+1el-Energy
 Convergence forced     ConvForced      .... 0
 Energy Change          TolE            ....  1.000e-06 Eh
 1-El. energy change                    ....  1.000e-03 Eh
 Orbital Gradient       TolG            ....  5.000e-05
 Orbital Rotation angle TolX            ....  5.000e-05
 DIIS Error             TolErr          ....  1.000e-06


Diagonalization of the overlap matrix:
Smallest eigenvalue                        ... 3.791e-03
Time for diagonalization                   ...    0.002 sec
Threshold for overlap eigenvalues          ... 1.000e-08
Number of eigenvalues below threshold      ... 0
Time for construction of square roots      ...    0.000 sec
Total time needed                          ...    0.002 sec

Time for model grid setup =    0.026 sec

------------------------------
INITIAL GUESS: MODEL POTENTIAL
------------------------------
Loading Hartree-Fock densities                     ... done
Calculating cut-offs                               ... done
Initializing the effective Hamiltonian             ... done
Setting up the integral package (SHARK)            ... done
Starting the Coulomb interaction                   ... done (   0.0 sec)
Reading the grid                                   ... done
Mapping shells                                     ... done
Starting the XC term evaluation                    ... done (   0.0 sec)
  promolecular density results
     # of electrons  =     25.995079353
     EX              =    -20.148900219
     EC              =     -0.837041197
     EX+EC           =    -20.985941416
Transforming the Hamiltonian                       ... done (   0.0 sec)
Diagonalizing the Hamiltonian                      ... done (   0.0 sec)
Back transforming the eigenvectors                 ... done (   0.0 sec)
Now organizing SCF variables                       ... done
                      ------------------
                      INITIAL GUESS DONE (   0.1 sec)
                      ------------------
-------------------
DFT GRID GENERATION
-------------------

General Integration Accuracy     IntAcc      ... 4.388
Radial Grid Type                 RadialGrid  ... OptM3 with GC (2021)
Angular Grid (max. ang.)         AngularGrid ... 4 (Lebedev-302)
Angular grid pruning method      GridPruning ... 4 (adaptive)
Weight generation scheme         WeightScheme... Becke
Basis function cutoff            BFCut       ... 1.0000e-10
Integration weight cutoff        WCut        ... 1.0000e-14
Angular grids for H and He will be reduced by one unit
Partially contracted basis set               ... off
Rotationally invariant grid construction     ... off

Total number of grid points                  ...    37734
Total number of batches                      ...      596
Average number of points per batch           ...       63
Average number of grid points per atom       ...     4193
Time for grid setup =    0.139 sec

--------------------
COSX GRID GENERATION
--------------------

GRIDX 1
-------
General Integration Accuracy     IntAcc      ... 3.816
Radial Grid Type                 RadialGrid  ... OptM3 with GC (2021)
Angular Grid (max. ang.)         AngularGrid ... 1 (Lebedev-50)
Angular grid pruning method      GridPruning ... 4 (adaptive)
Weight generation scheme         WeightScheme... Becke
Basis function cutoff            BFCut       ... 1.0000e-10
Integration weight cutoff        WCut        ... 1.0000e-14
Angular grids for H and He will be reduced by one unit
Partially contracted basis set               ... on
Rotationally invariant grid construction     ... off

Total number of grid points                  ...     4876
Total number of batches                      ...       82
Average number of points per batch           ...       59
Average number of grid points per atom       ...      542
UseSFitting                                  ... on

GRIDX 2
-------
General Integration Accuracy     IntAcc      ... 4.020
Radial Grid Type                 RadialGrid  ... OptM3 with GC (2021)
Angular Grid (max. ang.)         AngularGrid ... 2 (Lebedev-110)
Angular grid pruning method      GridPruning ... 4 (adaptive)
Weight generation scheme         WeightScheme... Becke
Basis function cutoff            BFCut       ... 1.0000e-10
Integration weight cutoff        WCut        ... 1.0000e-14
Angular grids for H and He will be reduced by one unit
Partially contracted basis set               ... on
Rotationally invariant grid construction     ... off

Total number of grid points                  ...    10227
Total number of batches                      ...      164
Average number of points per batch           ...       62
Average number of grid points per atom       ...     1136
UseSFitting                                  ... on

GRIDX 3
-------
General Integration Accuracy     IntAcc      ... 4.338
Radial Grid Type                 RadialGrid  ... OptM3 with GC (2021)
Angular Grid (max. ang.)         AngularGrid ... 3 (Lebedev-194)
Angular grid pruning method      GridPruning ... 4 (adaptive)
Weight generation scheme         WeightScheme... Becke
Basis function cutoff            BFCut       ... 1.0000e-10
Integration weight cutoff        WCut        ... 1.0000e-14
Angular grids for H and He will be reduced by one unit
Partially contracted basis set               ... on
Rotationally invariant grid construction     ... off

Total number of grid points                  ...    22451
Total number of batches                      ...      355
Average number of points per batch           ...       63
Average number of grid points per atom       ...     2495
UseSFitting                                  ... on

Time for X-Grid setup             =    0.129 sec

--------------
SCF ITERATIONS
--------------
ITER       Energy         Delta-E        Max-DP      RMS-DP      [F,P]     Damp
               ***  Starting incremental Fock matrix formation  ***
  0   -154.7136060379   0.000000000000 0.07263164  0.00330267  0.2338961 0.7000
  1   -154.7659287987  -0.052322760878 0.04809799  0.00226834  0.1171205 0.7000
                               ***Turning on DIIS***
  2   -154.7903412179  -0.024412419153 0.08107919  0.00390947  0.0462600 0.0000
  3   -154.8282099987  -0.037868780799 0.03526832  0.00166690  0.0551029 0.0000
  4   -154.8352835716  -0.007073572881 0.00491118  0.00028205  0.0060562 0.0000
  5   -154.8354057387  -0.000122167110 0.00197843  0.00010590  0.0037402 0.0000
                      *** Initiating the SOSCF procedure ***
                           *** Shutting down DIIS ***
                      *** Re-Reading the Fockian *** 
                      *** Removing any level shift *** 
ITER      Energy       Delta-E        Grad      Rot      Max-DP    RMS-DP
  6   -154.83542383  -0.0000180882  0.000131  0.000131  0.000544  0.000041
               *** Restarting incremental Fock matrix formation ***
  7   -154.83553150  -0.0001076688  0.000049  0.000058  0.000328  0.000023
                 **** Energy Check signals convergence ****
              ***Rediagonalizing the Fockian in SOSCF/NRSCF***

               *****************************************************
               *                     SUCCESS                       *
               *           SCF CONVERGED AFTER   8 CYCLES          *
               *****************************************************

Old exchange energy                            =    -11.207543829 Eh
New exchange energy                            =    -11.207597688 Eh
Exchange energy change after final integration =     -0.000053859 Eh
Total energy after final integration           =   -154.835585520 Eh
Final COS-X integration done in                =     0.612 sec

----------------
TOTAL SCF ENERGY
----------------

Total Energy       :         -154.83558552 Eh           -4213.29048 eV

Components:
Nuclear Repulsion  :           81.69397741 Eh            2223.00614 eV
Electronic Energy  :         -236.52956293 Eh           -6436.29662 eV
One Electron Energy:         -371.38026854 Eh          -10105.77087 eV
Two Electron Energy:          134.85070561 Eh            3669.47425 eV
Max COSX asymmetry :            0.00000572 Eh               0.00016 eV

Virial components:
Potential Energy   :         -308.33309773 Eh           -8390.17014 eV
Kinetic Energy     :          153.49751221 Eh            4176.87966 eV
Virial Ratio       :            2.00871723


DFT components:
N(Alpha)           :       13.000004392229 electrons
N(Beta)            :       13.000004392229 electrons
N(Total)           :       26.000008784459 electrons
E(XC)              :      -10.427128418266 Eh       
DFET-embed. en.    :        0.000000000000 Eh       

---------------
SCF CONVERGENCE
---------------

  Last Energy change         ...   -1.6584e-07  Tolerance :   1.0000e-06
  Last MAX-Density change    ...    1.7443e-15  Tolerance :   1.0000e-05
  Last RMS-Density change    ...    4.0182e-17  Tolerance :   1.0000e-06
  Last Orbital Gradient      ...    2.0549e-05  Tolerance :   5.0000e-05
  Last Orbital Rotation      ...    3.6120e-05  Tolerance :   5.0000e-05

             **** THE GBW FILE WAS UPDATED (calc.gbw) ****
             **** DENSITY calc.scfp WAS UPDATED ****
             **** ENERGY FILE WAS UPDATED (calc.en.tmp) ****
             **** THE GBW FILE WAS UPDATED (calc.gbw) ****
             **** DENSITY calc.scfp WAS UPDATED ****
----------------
ORBITAL ENERGIES
----------------

  NO   OCC          E(Eh)            E(eV) 
   0   2.0000     -19.612390      -533.6803 
   1   2.0000     -10.587645      -288.1045 
   2   2.0000     -10.532872      -286.6140 
   3   2.0000      -1.108449       -30.1624 
   4   2.0000      -0.833186       -22.6721 
   5   2.0000      -0.691939       -18.8286 
   6   2.0000      -0.583011       -15.8645 
   7   2.0000      -0.539920       -14.6920 
   8   2.0000      -0.465134       -12.6569 
   9   2.0000      -0.447963       -12.1897 
  10   2.0000      -0.435170       -11.8416 
  11   2.0000      -0.386531       -10.5180 
  12   2.0000      -0.338576        -9.2131 
  13   0.0000       0.094636         2.5752 
  14   0.0000       0.129894         3.5346 
  15   0.0000       0.168471         4.5843 
  16   0.0000       0.170733         4.6459 
  17   0.0000       0.186453         5.0736 
  18   0.0000       0.208464         5.6726 
  19   0.0000       0.251002         6.8301 
  20   0.0000       0.270522         7.3613 
  21   0.0000       0.480164        13.0659 
  22   0.0000       0.491231        13.3671 
  23   0.0000       0.520038        14.1509 
  24   0.0000       0.559340        15.2204 
  25   0.0000       0.620681        16.8896 
  26   0.0000       0.650221        17.6934 
  27   0.0000       0.696141        18.9430 
  28   0.0000       0.730669        19.8825 
  29   0.0000       0.737955        20.0808 
  30   0.0000       0.742782        20.2121 
  31   0.0000       0.766575        20.8596 
  32   0.0000       0.768875        20.9221 
  33   0.0000       0.786946        21.4139 
  34   0.0000       0.942292        25.6411 
  35   0.0000       1.069588        29.1050 
  36   0.0000       1.073143        29.2017 
  37   0.0000       1.137088        30.9417 
  38   0.0000       1.269811        34.5533 
  39   0.0000       1.335910        36.3520 
  40   0.0000       1.423731        38.7417 
  41   0.0000       1.461406        39.7669 
  42   0.0000       1.530787        41.6548 
  43   0.0000       1.579669        42.9850 
  44   0.0000       1.603844        43.6428 
  45   0.0000       1.759836        47.8876 
  46   0.0000       1.780699        48.4553 
  47   0.0000       1.800488        48.9938 
  48   0.0000       1.844500        50.1914 
  49   0.0000       1.880688        51.1761 
  50   0.0000       1.921412        52.2843 
  51   0.0000       1.923964        52.3537 
  52   0.0000       1.942301        52.8527 
  53   0.0000       1.986401        54.0527 
  54   0.0000       2.109600        57.4051 
  55   0.0000       2.239165        60.9308 
  56   0.0000       2.244617        61.0791 
  57   0.0000       2.302087        62.6430 
  58   0.0000       2.439397        66.3794 
  59   0.0000       2.457179        66.8632 
  60   0.0000       2.559603        69.6503 
  61   0.0000       2.623108        71.3784 
  62   0.0000       2.777193        75.5713 
  63   0.0000       2.866444        77.9999 
  64   0.0000       2.927132        79.6513 
  65   0.0000       2.996519        81.5394 
  66   0.0000       3.010638        81.9236 
  67   0.0000       3.060757        83.2874 
  68   0.0000       3.155500        85.8655 
  69   0.0000       3.196377        86.9778 
  70   0.0000       3.389657        92.2373 
  71   0.0000       3.810964       103.7016 

                    ********************************
                    * MULLIKEN POPULATION ANALYSIS *
                    ********************************

-----------------------
MULLIKEN ATOMIC CHARGES
-----------------------
   0 C :   -0.079224
   1 H :    0.045174
   2 H :    0.045038
   3 H :    0.033009
   4 C :    0.122704
   5 H :    0.014189
   6 H :    0.014649
   7 O :   -0.374308
   8 H :    0.178770
Sum of atomic charges:    0.0000000

--------------------------------
MULLIKEN REDUCED ORBITAL CHARGES
--------------------------------
  0 C s       :     3.015605  s :     3.015605
      pz      :     1.001983  p :     3.038036
      px      :     1.000769
      py      :     1.035285
      dz2     :     0.007268  d :     0.025583
      dxz     :     0.002687
      dyz     :     0.005538
      dx2y2   :     0.007556
      dxy     :     0.002534
  1 H s       :     0.931485  s :     0.931485
      pz      :     0.003866  p :     0.023341
      px      :     0.005859
      py      :     0.013617
  2 H s       :     0.931610  s :     0.931610
      pz      :     0.010837  p :     0.023352
      px      :     0.005861
      py      :     0.006654
  3 H s       :     0.943534  s :     0.943534
      pz      :     0.004086  p :     0.023457
      px      :     0.014881
      py      :     0.004489
  4 C s       :     3.015837  s :     3.015837
      pz      :     1.045584  p :     2.801359
      px      :     0.727391
      py      :     1.028384
      dz2     :     0.011156  d :     0.060100
      dxz     :     0.012464
      dyz     :     0.006167
      dx2y2   :     0.016561
      dxy     :     0.013751
  5 H s       :     0.964993  s :     0.964993
      pz      :     0.004024  p :     0.020817
      px      :     0.002981
      py      :     0.013812
  6 H s       :     0.964528  s :     0.964528
      pz      :     0.010877  p :     0.020823
      px      :     0.003003
      py      :     0.006943
  7 O s       :     3.737359  s :     3.737359
      pz      :     1.523751  p :     4.623923
      px      :     1.311810
      py      :     1.788362
      dz2     :     0.003119  d :     0.013026
      dxz     :     0.002077
      dyz     :     0.002760
      dx2y2   :     0.003353
      dxy     :     0.001717
  8 H s       :     0.753280  s :     0.753280
      pz      :     0.028441  p :     0.067951
      px      :     0.016509
      py      :     0.023000


                     *******************************
                     * LOEWDIN POPULATION ANALYSIS *
                     *******************************

----------------------
LOEWDIN ATOMIC CHARGES
----------------------
   0 C :   -0.065406
   1 H :    0.027685
   2 H :    0.027643
   3 H :    0.026721
   4 C :    0.079633
   5 H :    0.002020
   6 H :    0.002040
   7 O :   -0.175260
   8 H :    0.074923

-------------------------------
LOEWDIN REDUCED ORBITAL CHARGES
-------------------------------
  0 C s       :     2.825947  s :     2.825947
      pz      :     1.040978  p :     3.169697
      px      :     1.060848
      py      :     1.067870
      dz2     :     0.019107  d :     0.069763
      dxz     :     0.007899
      dyz     :     0.015425
      dx2y2   :     0.020220
      dxy     :     0.007111
  1 H s       :     0.903050  s :     0.903050
      pz      :     0.014046  p :     0.069265
      px      :     0.016710
      py      :     0.038509
  2 H s       :     0.903097  s :     0.903097
      pz      :     0.032810  p :     0.069260
      px      :     0.016705
      py      :     0.019745
  3 H s       :     0.904427  s :     0.904427
      pz      :     0.014229  p :     0.068852
      px      :     0.040536
      py      :     0.014087
  4 C s       :     2.831462  s :     2.831462
      pz      :     1.064172  p :     2.950019
      px      :     0.813461
      py      :     1.072386
      dz2     :     0.026847  d :     0.138886
      dxz     :     0.026441
      dyz     :     0.016550
      dx2y2   :     0.038008
      dxy     :     0.031039
  5 H s       :     0.929810  s :     0.929810
      pz      :     0.014422  p :     0.068171
      px      :     0.014087
      py      :     0.039662
  6 H s       :     0.929779  s :     0.929779
      pz      :     0.033226  p :     0.068180
      px      :     0.014156
      py      :     0.020798
  7 O s       :     3.450081  s :     3.450081
      pz      :     1.572090  p :     4.701758
      px      :     1.351081
      py      :     1.778586
      dz2     :     0.005437  d :     0.023421
      dxz     :     0.004086
      dyz     :     0.004937
      dx2y2   :     0.005992
      dxy     :     0.002968
  8 H s       :     0.741817  s :     0.741817
      pz      :     0.080370  p :     0.183259
      px      :     0.039807
      py      :     0.063082


                      *****************************
                      * MAYER POPULATION ANALYSIS *
                      *****************************

  NA   - Mulliken gross atomic population
  ZA   - Total nuclear charge
  QA   - Mulliken gross atomic charge
  VA   - Mayer's total valence
  BVA  - Mayer's bonded valence
  FA   - Mayer's free valence

  ATOM       NA         ZA         QA         VA         BVA        FA
  0 C      6.0792     6.0000    -0.0792     3.9984     3.9984     0.0000
  1 H      0.9548     1.0000     0.0452     0.9895     0.9895    -0.0000
  2 H      0.9550     1.0000     0.0450     0.9895     0.9895    -0.0000
  3 H      0.9670     1.0000     0.0330     0.9841     0.9841     0.0000
  4 C      5.8773     6.0000     0.1227     4.0790     4.0790    -0.0000
  5 H      0.9858     1.0000     0.0142     0.9647     0.9647    -0.0000
  6 H      0.9854     1.0000     0.0146     0.9647     0.9647    -0.0000
  7 O      8.3743     8.0000    -0.3743     2.0115     2.0115     0.0000
  8 H      0.8212     1.0000     0.1788     1.0067     1.0067     0.0000

  Mayer bond orders larger than 0.100000
B(  0-C ,  1-H ) :   0.9731 B(  0-C ,  2-H ) :   0.9731 B(  0-C ,  3-H ) :   0.9695 
B(  0-C ,  4-C ) :   1.0960 B(  4-C ,  5-H ) :   0.9604 B(  4-C ,  6-H ) :   0.9606 
B(  4-C ,  7-O ) :   1.0212 B(  7-O ,  8-H ) :   0.9772 

-------
TIMINGS
-------

Total SCF time: 0 days 0 hours 0 min 4 sec 

Total time                  ....       4.550 sec
Sum of individual times     ....       4.517 sec  ( 99.3%)

Fock matrix formation       ....       4.179 sec  ( 91.8%)
  Split-RI-J                ....       0.249 sec  (  6.0% of F)
  Chain of spheres X        ....       2.298 sec  ( 55.0% of F)
  XC integration            ....       1.629 sec  ( 39.0% of F)
    Basis function eval.    ....       0.327 sec  ( 20.1% of XC)
    Density eval.           ....       0.475 sec  ( 29.2% of XC)
    XC-Functional eval.     ....       0.228 sec  ( 14.0% of XC)
    XC-Potential eval.      ....       0.563 sec  ( 34.6% of XC)
Diagonalization             ....       0.003 sec  (  0.1%)
Density matrix formation    ....       0.000 sec  (  0.0%)
Population analysis         ....       0.001 sec  (  0.0%)
Initial guess               ....       0.037 sec  (  0.8%)
Orbital Transformation      ....       0.000 sec  (  0.0%)
Orbital Orthonormalization  ....       0.000 sec  (  0.0%)
DIIS solution               ....       0.001 sec  (  0.0%)
SOSCF solution              ....       0.000 sec  (  0.0%)
Grid generation             ....       0.295 sec  (  6.5%)

Maximum memory used throughout the entire SCF-calculation: 48.8 MB

-------------------------   --------------------
FINAL SINGLE POINT ENERGY      -154.835585520458
-------------------------   --------------------


                            ***************************************
                            *     ORCA property calculations      *
                            ***************************************

                                    ---------------------
                                    Active property flags
                                    ---------------------
   (+) Dipole Moment
   (+) Chemical Shifts
   (+) Nuclear properties (Hyperfine,Quadrupole)


------------------------------------------------------------------------------
                       ORCA ELECTRIC PROPERTIES CALCULATION
------------------------------------------------------------------------------

Dipole Moment Calculation                       ... on
Quadrupole Moment Calculation                   ... off
Polarizability Calculation                      ... off
GBWName                                         ... calc.gbw
Electron density                                ... calc.scfp
The origin for moment calculation is the CENTER OF MASS  = (-0.873846, -0.275233  1.633938)

-------------
DIPOLE MOMENT
-------------
                                X             Y             Z
Electronic contribution:      2.35920       0.60137       1.04848
Nuclear contribution   :     -2.72668      -0.33349      -0.58678
                        -----------------------------------------
Total Dipole Moment    :     -0.36748       0.26788       0.46170
                        -----------------------------------------
Magnitude (a.u.)       :      0.64806
Magnitude (Debye)      :      1.64723



--------------------
Rotational spectrum 
--------------------
 
Rotational constants in cm-1:     1.212098     0.303188     0.266088 
Rotational constants in MHz : 36337.793217  9089.360836  7977.112972 

 Dipole components along the rotational axes: 
x,y,z [a.u.] :     0.044927     0.646498     0.000109 
x,y,z [Debye]:     0.114196     1.643266     0.000277 

 
------------------------------------------------------------------------------
                                ORCA EPR/NMR CALCULATION
------------------------------------------------------------------------------

GBWName                      ... calc.gbw
Electron density             ... calc.scfp
Spin density                 ... calc.scfr
Treatment of gauge           ... GIAO (approximations 1/2el = 0,0)
Tau option for meta-GGA DFT  ... Ad-hoc gauge-invariant
Details of the CP(SCF) procedure:
       Solver   = POPLE   
       MaxIter  =    64   
       Tolerance=    1.000e-03
       COSX Grid=     1   
       Op-0     =   0- 12 =>  13- 71
Multiplicity                 ... 1
g-tensor                     ... 0
NMR chemical shifts          ... 1
NMR spin-spin couplings      ... 0
NMR spectrum                 ... 0
Number of nuclei for epr/nmr ... 9
   Nucleus:   0C 
       Hyperfine : Isotope=   13 I=   0.500 P= 134.188
       Quadrupole: Isotope=   13 I=   0.500 Q=   0.000
       Spin-Orbit: Zeff=   3.600
       Nuclear Spin-Spin: Gn=   0.000
       EPRNMR Input: 
       rho(0)=N f(grad)=N a(iso)=N a(dip)=N a(orb)=N sigma(nmr)=Y spin-spin(nmr)=all-N,DSO-N,PSO-N,FC-N,SD-N
   Nucleus:   1H 
       Hyperfine : Isotope=    1 I=   0.500 P= 533.552
       Quadrupole: Isotope=    2 I=   1.000 Q=   0.003
       Spin-Orbit: Zeff=   1.000
       Nuclear Spin-Spin: Gn=   0.000
       EPRNMR Input: 
       rho(0)=N f(grad)=N a(iso)=N a(dip)=N a(orb)=N sigma(nmr)=Y spin-spin(nmr)=all-N,DSO-N,PSO-N,FC-N,SD-N
   Nucleus:   2H 
       Hyperfine : Isotope=    1 I=   0.500 P= 533.552
       Quadrupole: Isotope=    2 I=   1.000 Q=   0.003
       Spin-Orbit: Zeff=   1.000
       Nuclear Spin-Spin: Gn=   0.000
       EPRNMR Input: 
       rho(0)=N f(grad)=N a(iso)=N a(dip)=N a(orb)=N sigma(nmr)=Y spin-spin(nmr)=all-N,DSO-N,PSO-N,FC-N,SD-N
   Nucleus:   3H 
       Hyperfine : Isotope=    1 I=   0.500 P= 533.552
       Quadrupole: Isotope=    2 I=   1.000 Q=   0.003
       Spin-Orbit: Zeff=   1.000
       Nuclear Spin-Spin: Gn=   0.000
       EPRNMR Input: 
       rho(0)=N f(grad)=N a(iso)=N a(dip)=N a(orb)=N sigma(nmr)=Y spin-spin(nmr)=all-N,DSO-N,PSO-N,FC-N,SD-N
   Nucleus:   4C 
       Hyperfine : Isotope=   13 I=   0.500 P= 134.188
       Quadrupole: Isotope=   13 I=   0.500 Q=   0.000
       Spin-Orbit: Zeff=   3.600
       Nuclear Spin-Spin: Gn=   0.000
       EPRNMR Input: 
       rho(0)=N f(grad)=N a(iso)=N a(dip)=N a(orb)=N sigma(nmr)=Y spin-spin(nmr)=all-N,DSO-N,PSO-N,FC-N,SD-N
   Nucleus:   5H 
       Hyperfine : Isotope=    1 I=   0.500 P= 533.552
       Quadrupole: Isotope=    2 I=   1.000 Q=   0.003
       Spin-Orbit: Zeff=   1.000
       Nuclear Spin-Spin: Gn=   0.000
       EPRNMR Input: 
       rho(0)=N f(grad)=N a(iso)=N a(dip)=N a(orb)=N sigma(nmr)=Y spin-spin(nmr)=all-N,DSO-N,PSO-N,FC-N,SD-N
   Nucleus:   6H 
       Hyperfine : Isotope=    1 I=   0.500 P= 533.552
       Quadrupole: Isotope=    2 I=   1.000 Q=   0.003
       Spin-Orbit: Zeff=   1.000
       Nuclear Spin-Spin: Gn=   0.000
       EPRNMR Input: 
       rho(0)=N f(grad)=N a(iso)=N a(dip)=N a(orb)=N sigma(nmr)=Y spin-spin(nmr)=all-N,DSO-N,PSO-N,FC-N,SD-N
   Nucleus:   7O 
       Hyperfine : Isotope=   17 I=   2.500 P= -72.357
       Quadrupole: Isotope=   17 I=   2.500 Q=  -0.026
       Spin-Orbit: Zeff=   5.600
       Nuclear Spin-Spin: Gn=   0.000
       EPRNMR Input: 
       rho(0)=N f(grad)=N a(iso)=N a(dip)=N a(orb)=N sigma(nmr)=Y spin-spin(nmr)=all-N,DSO-N,PSO-N,FC-N,SD-N
   Nucleus:   8H 
       Hyperfine : Isotope=    1 I=   0.500 P= 533.552
       Quadrupole: Isotope=    2 I=   1.000 Q=   0.003
       Spin-Orbit: Zeff=   1.000
       Nuclear Spin-Spin: Gn=   0.000
       EPRNMR Input: 
       rho(0)=N f(grad)=N a(iso)=N a(dip)=N a(orb)=N sigma(nmr)=Y spin-spin(nmr)=all-N,DSO-N,PSO-N,FC-N,SD-N
Forming RHS of the CP-SCF equations         ... 
Calculating right hand sides for GIAO treatment        ... 
  Entering RightHandSide GIAO. ScalHFX=    0.5400 NeedHFX=1
     -> 1-electron GIAO integrals will be done analytically
     -> RIJCOSX used in SCF. Same chosen for GIAO calculation.
     Making grid for GIAO integrations   ...

GRID GIAO
---------

General Integration Accuracy     IntAcc      ... 4.388
Radial Grid Type                 RadialGrid  ... OptM3 with GC (2021)
Angular Grid (max. ang.)         AngularGrid ... 4 (Lebedev-302)
Angular grid pruning method      GridPruning ... 4 (adaptive)
Weight generation scheme         WeightScheme... Becke
Basis function cutoff            BFCut       ... 1.0000e-10
Integration weight cutoff        WCut        ... 1.0000e-14
Angular grids for H and He will be reduced by one unit
Partially contracted basis set               ... off
Rotationally invariant grid construction     ... off

Total number of grid points                  ...    37734
Total number of batches                      ...      596
Average number of points per batch           ...       63
Average number of grid points per atom       ...     4193

  One-electron GIAO integrals (SHARK)     ... done
  Calculating G(B)[P]                     ... (RI-J: SHARK-ok) (COSX-ok) (add-J+K:ok) => dG/dB done
  DFT XC-terms                            ... done
  Extracting occupied and virtual blocks  ... 
  Operator  0  NO=  13 NV=  59 
  Transforming and RHS contribution       ... done
  Adding eps_i * S(B)_ai terms            ... done
  Projecting overlap derivatives          ... done
  Building G[dS/dB_ij] (COSX)             ... done
  Transforming to MO basis                ... done
  Summing G[dS/dB_ij] into RHS contribs.  ... done

  GIAO profiling information: 
    Total GIAO time               ...       1.7 sec
       GIAO 1-electron integrals  ...       0.0 sec (  0.4%)
       GIAO G(dS/dB) terms        ...       0.1 sec (  6.4%)
       GIAO RI-J                  ...       0.1 sec (  8.4%)
       GIAO COSX                  ...       0.4 sec ( 23.0%)
       GIAO XC-terms              ...       0.9 sec ( 53.4%)

  GIAO right hand side done


------------------------------------------------------------------------------
                           ORCA CP-SCF CALCULATION
------------------------------------------------------------------------------

Input orbitals are from        ... calc.gbw
Input Perturbation             ... calc.pin.tmp
Wavefunction output            ... calc.pout.tmp
Perturbation mode              ... Imaginary perturbation
Solver                         ... POPLE
Max. number of iterations      ... 64
Convergence tolerance          ... 1.000e-03
Integral handling              ... Direct
DFT GridXC                     ... 1
COSX GridX                     ... 1
COSX IntAccX                   ... 3.067
COSX Algorithm                 ... Auto
Number of perturbations        ... 3
Number of operators            ... 1
Orbital ranges used for CP-SCF:
 Operator 0:  Orbitals   0... 12  to  13... 71
Variables per perturbation     ... 767
DFT calculation                         ... on
XC functional terms                     ... off
Hybrid DFT                              ... on
   Exchange mixing (SCF)                ...  0.540
   Exchange mixing (CP-SCF)             ...  0.540
   GGA exch. scaling(SCF)               ...  0.460
   GGA exch. scaling (CP-SCF)           ...  0.460
   GGA corr. scaling (SCF)              ...  1.000
   GGA corr. scaling (CP-SCF)           ...  1.000

CP-SCF GRID
-----------

General Integration Accuracy     IntAcc      ... 3.467
Radial Grid Type                 RadialGrid  ... OptM3 with GC (2021)
Angular Grid (max. ang.)         AngularGrid ... 1 (Lebedev-50)
Angular grid pruning method      GridPruning ... 4 (adaptive)
Weight generation scheme         WeightScheme... Becke
Basis function cutoff            BFCut       ... 1.0000e-10
Integration weight cutoff        WCut        ... 1.0000e-14
Angular grids for H and He will be reduced by one unit
Partially contracted basis set               ... off
Rotationally invariant grid construction     ... off

Total number of grid points                  ...     5304
Total number of batches                      ...       87
Average number of points per batch           ...       60
Average number of grid points per atom       ...      589

CP-SCF GRIDX
------------

General Integration Accuracy     IntAcc      ... 3.067
Radial Grid Type                 RadialGrid  ... OptM3 with GC (2021)
Angular Grid (max. ang.)         AngularGrid ... 1 (Lebedev-50)
Angular grid pruning method      GridPruning ... 4 (adaptive)
Weight generation scheme         WeightScheme... Becke
Basis function cutoff            BFCut       ... 1.0000e-10
Integration weight cutoff        WCut        ... 1.0000e-14
Angular grids for H and He will be reduced by one unit
Partially contracted basis set               ... on
Rotationally invariant grid construction     ... off

Total number of grid points                  ...     2484
Total number of batches                      ...       45
Average number of points per batch           ...       55
Average number of grid points per atom       ...      276

Memory available               ... 1008.9 MB
Memory needed per perturbation ...   0.9 MB
Perturbations treated per batch... 3
Number of batches              ... 1
     CP-SCF ITERATION   0:   3.5120e-01 (   0.1 sec   0/  3 done)
     CP-SCF ITERATION   1:   1.1851e-02 (   0.1 sec   0/  3 done)
     CP-SCF ITERATION   2:   1.7482e-03 (   0.1 sec   0/  3 done)
     CP-SCF ITERATION   3:   2.3152e-04 (   0.1 sec   3/  3 done)
                    *** THE CP-SCF HAS CONVERGED ***

Forming final perturbed densities           ... done
Transforming perturbed density to AO basis  ... done

Magnetic field perturbation calculated in  2.077 sec

---------------
CHEMICAL SHIFTS
---------------

Note: using conversion factor for au to ppm alpha^2/2 =   26.625677252 
GIAO: Analytic para- and diamagnetic shielding integrals (SHARK)       ...done
 --------------
 Nucleus   0C :
 --------------

Diamagnetic contribution to the shielding tensor (ppm) : 
           244.696          2.049         3.239
             2.292        243.501         3.176
             3.945          3.219       247.157

Paramagnetic contribution to the shielding tensor (ppm): 
           -65.731         -0.774        -0.899
             2.668        -78.990         9.200
             4.748          9.167       -68.389

Total shielding tensor (ppm): 
           178.965          1.276         2.340
             4.960        164.510        12.376
             8.692         12.385       178.769


 Diagonalized sT*s matrix:
 
 sDSO           241.646          242.135          251.572  iso=     245.118
 sPSO           -84.294          -66.917          -61.899  iso=     -71.037
        ---------------  ---------------  ---------------
 Total          157.352          175.218          189.673  iso=     174.081

 --------------
 Nucleus   1H :
 --------------

Diamagnetic contribution to the shielding tensor (ppm) : 
            25.613         -2.935         1.115
            -0.371         39.132         1.806
             1.123          2.291        26.335

Paramagnetic contribution to the shielding tensor (ppm): 
             2.671          1.895        -0.156
            -0.847         -3.432        -0.759
            -1.073         -0.251         2.610

Total shielding tensor (ppm): 
            28.284         -1.040         0.959
            -1.218         35.700         1.046
             0.050          2.040        28.946


 Diagonalized sT*s matrix:
 
 sDSO            24.403           27.116           39.562  iso=      30.360
 sPSO             3.218            2.030           -3.399  iso=       0.616
        ---------------  ---------------  ---------------
 Total           27.622           29.145           36.163  iso=      30.976

 --------------
 Nucleus   2H :
 --------------

Diamagnetic contribution to the shielding tensor (ppm) : 
            27.786          2.147        -2.047
             1.220         28.584        -4.054
             0.351         -3.344        38.107

Paramagnetic contribution to the shielding tensor (ppm): 
             0.499         -0.804         1.633
            -0.566          0.720         2.396
            -1.385          0.702        -2.763

Total shielding tensor (ppm): 
            28.286          1.344        -0.414
             0.655         29.305        -1.658
            -1.033         -2.642        35.344


 Diagonalized sT*s matrix:
 
 sDSO            26.287           28.663           39.527  iso=      31.493
 sPSO             1.341            0.486           -3.370  iso=      -0.515
        ---------------  ---------------  ---------------
 Total           27.628           29.149           36.157  iso=      30.978

 --------------
 Nucleus   3H :
 --------------

Diamagnetic contribution to the shielding tensor (ppm) : 
            40.463          2.132         1.206
             1.541         23.187         0.766
             2.666          0.877        24.008

Paramagnetic contribution to the shielding tensor (ppm): 
            -3.336         -1.110         0.556
            -0.474          5.234        -0.141
            -0.810         -0.249         5.140

Total shielding tensor (ppm): 
            37.126          1.022         1.762
             1.067         28.421         0.625
             1.856          0.628        29.148


 Diagonalized sT*s matrix:
 
 sDSO            22.681           24.247           40.730  iso=      29.219
 sPSO             5.379            4.727           -3.069  iso=       2.346
        ---------------  ---------------  ---------------
 Total           28.060           28.974           37.661  iso=      31.565

 --------------
 Nucleus   4C :
 --------------

Diamagnetic contribution to the shielding tensor (ppm) : 
           245.614          2.281        -0.618
            -0.167        234.309         3.791
            -0.325          2.725       239.453

Paramagnetic contribution to the shielding tensor (ppm): 
           -69.480         -3.692        -1.597
            -0.253       -127.242         1.913
            -0.130          2.952      -125.873

Total shielding tensor (ppm): 
           176.134         -1.411        -2.215
            -0.420        107.067         5.704
            -0.455          5.677       113.581


 Diagonalized sT*s matrix:
 
 sDSO           232.779          240.999          245.599  iso=     239.792
 sPSO          -129.012         -124.161          -69.421  iso=    -107.531
        ---------------  ---------------  ---------------
 Total          103.767          116.837          176.178  iso=     132.261

 --------------
 Nucleus   5H :
 --------------

Diamagnetic contribution to the shielding tensor (ppm) : 
            29.610         -4.740        -0.481
            -7.337         36.714         3.869
            -0.260          1.539        24.851

Paramagnetic contribution to the shielding tensor (ppm): 
             1.050          0.800         1.387
             6.101         -6.822        -1.535
             0.623          0.845         0.757

Total shielding tensor (ppm): 
            30.661         -3.939         0.906
            -1.236         29.892         2.335
             0.363          2.384        25.608


 Diagonalized sT*s matrix:
 
 sDSO            24.239           27.319           39.617  iso=      30.392
 sPSO            -0.123            1.665           -6.556  iso=      -1.671
        ---------------  ---------------  ---------------
 Total           24.116           28.984           33.061  iso=      28.720

 --------------
 Nucleus   6H :
 --------------

Diamagnetic contribution to the shielding tensor (ppm) : 
            27.120          4.412        -5.175
             3.577         23.917        -5.030
            -6.277         -5.238        35.901

Paramagnetic contribution to the shielding tensor (ppm): 
             3.567         -1.675         2.210
            -2.663          0.698         4.393
             5.379          4.554        -5.041

Total shielding tensor (ppm): 
            30.687          2.737        -2.966
             0.915         24.615        -0.637
            -0.898         -0.685        30.860


 Diagonalized sT*s matrix:
 
 sDSO            21.871           25.741           39.326  iso=      28.979
 sPSO             2.237            3.244           -6.257  iso=      -0.259
        ---------------  ---------------  ---------------
 Total           24.108           28.985           33.069  iso=      28.721

 --------------
 Nucleus   7O :
 --------------

Diamagnetic contribution to the shielding tensor (ppm) : 
           403.035          3.850        14.311
             2.514        373.288         8.979
             4.505         10.236       383.072

Paramagnetic contribution to the shielding tensor (ppm): 
          -111.776         13.927        16.853
            27.605        -79.878        31.900
            48.060         30.417       -43.002

Total shielding tensor (ppm): 
           291.259         17.777        31.164
            30.118        293.410        40.879
            52.565         40.653       340.070


 Diagonalized sT*s matrix:
 
 sDSO           391.311          368.107          399.977  iso=     386.465
 sPSO          -124.128          -98.312          -12.216  iso=     -78.218
        ---------------  ---------------  ---------------
 Total          267.184          269.795          387.760  iso=     308.246

 --------------
 Nucleus   8H :
 --------------

Diamagnetic contribution to the shielding tensor (ppm) : 
            31.317          4.885        10.494
             3.531         25.715         8.930
             6.134          7.876        36.684

Paramagnetic contribution to the shielding tensor (ppm): 
             1.337         -0.758        -3.329
            -0.144          1.345        -0.962
            -0.252          0.087        -0.415

Total shielding tensor (ppm): 
            32.654          4.127         7.165
             3.386         27.061         7.967
             5.883          7.963        36.269


 Diagonalized sT*s matrix:
 
 sDSO            21.179           25.734           46.803  iso=      31.239
 sPSO             1.285            2.453           -1.470  iso=       0.756
        ---------------  ---------------  ---------------
 Total           22.464           28.186           45.333  iso=      31.994



--------------------------------
CHEMICAL SHIELDING SUMMARY (ppm)
--------------------------------


  Nucleus  Element    Isotropic     Anisotropy
  -------  -------  ------------   ------------
      0       C          174.081         23.388 
      1       H           30.976          7.779 
      2       H           30.978          7.768 
      3       H           31.565          9.144 
      4       C          132.261         65.875 
      5       H           28.720          6.511 
      6       H           28.721          6.523 
      7       O          308.246        119.271 
      8       H           31.994         20.007 



Maximum memory used throughout the entire EPRNMR-calculation: 18.6 MB

Timings for individual modules:

Sum of individual times         ...        6.812 sec (=   0.114 min)
GTO integral calculation        ...        0.083 sec (=   0.001 min)   1.2 %
SCF iterations                  ...        4.567 sec (=   0.076 min)  67.0 %
EPR/NMR calculation             ...        2.162 sec (=   0.036 min)  31.7 %
                             ****ORCA TERMINATED NORMALLY****
TOTAL RUN TIME: 0 days 0 hours 0 minutes 6 seconds 905 msec
