
                                 *****************
                                 * O   R   C   A *
                                 *****************

                                            #,                                       
                                            ###                                      
                                            ####                                     
                                            #####                                    
                                            ######                                   
                                           ########,                                 
                                     ,,################,,,,,                         
                               ,,#################################,,                 
                          ,,##########################################,,             
                       ,#########################################, ''#####,          
                    ,#############################################,,   '####,        
                  ,##################################################,,,,####,       
                ,###########''''           ''''###############################       
              ,#####''   ,,,,##########,,,,          '''####'''          '####       
            ,##' ,,,,###########################,,,                        '##       
           ' ,,###''''                  '''############,,,                           
         ,,##''                                '''############,,,,        ,,,,,,###''
      ,#''                                            '''#######################'''  
     '                                                          ''''####''''         
             ,#######,   #######,   ,#######,      ##                                
            ,#'     '#,  ##    ##  ,#'     '#,    #''#        ######   ,####,        
            ##       ##  ##   ,#'  ##            #'  '#       #        #'  '#        
            ##       ##  #######   ##           ,######,      #####,   #    #        
            '#,     ,#'  ##    ##  '#,     ,#' ,#      #,         ##   #,  ,#        
             '#######'   ##     ##  '#######'  #'      '#     #####' # '####'        



                  #######################################################
                  #                        -***-                        #
                  #          Department of theory and spectroscopy      #
                  #    Directorship and core code : Frank Neese         #
                  #        Max Planck Institute fuer Kohlenforschung    #
                  #                Kaiser Wilhelm Platz 1               #
                  #                 D-45470 Muelheim/Ruhr               #
                  #                      Germany                        #
                  #                                                     #
                  #                  All rights reserved                #
                  #                        -***-                        #
                  #######################################################


                         Program Version 5.0.3 -  RELEASE  -


 With contributions from (in alphabetic order):
   Daniel Aravena         : Magnetic Suceptibility
   Michael Atanasov       : Ab Initio Ligand Field Theory (pilot matlab implementation)
   Alexander A. Auer      : GIAO ZORA, VPT2 properties, NMR spectrum
   Ute Becker             : Parallelization
   Giovanni Bistoni       : ED, misc. LED, open-shell LED, HFLD
   Martin Brehm           : Molecular dynamics
   Dmytro Bykov           : SCF Hessian
   Vijay G. Chilkuri      : MRCI spin determinant printing, contributions to CSF-ICE
   Dipayan Datta          : RHF DLPNO-CCSD density
   Achintya Kumar Dutta   : EOM-CC, STEOM-CC
   Dmitry Ganyushin       : Spin-Orbit,Spin-Spin,Magnetic field MRCI
   Miquel Garcia          : C-PCM and meta-GGA Hessian, CC/C-PCM, Gaussian charge scheme
   Yang Guo               : DLPNO-NEVPT2, F12-NEVPT2, CIM, IAO-localization
   Andreas Hansen         : Spin unrestricted coupled pair/coupled cluster methods
   Benjamin Helmich-Paris : MC-RPA, TRAH-SCF, COSX integrals
   Lee Huntington         : MR-EOM, pCC
   Robert Izsak           : Overlap fitted RIJCOSX, COSX-SCS-MP3, EOM
   Marcus Kettner         : VPT2
   Christian Kollmar      : KDIIS, OOCD, Brueckner-CCSD(T), CCSD density, CASPT2, CASPT2-K
   Simone Kossmann        : Meta GGA functionals, TD-DFT gradient, OOMP2, MP2 Hessian
   Martin Krupicka        : Initial AUTO-CI
   Lucas Lang             : DCDCAS
   Marvin Lechner         : AUTO-CI (C++ implementation), FIC-MRCC
   Dagmar Lenk            : GEPOL surface, SMD
   Dimitrios Liakos       : Extrapolation schemes; Compound Job, initial MDCI parallelization
   Dimitrios Manganas     : Further ROCIS development; embedding schemes
   Dimitrios Pantazis     : SARC Basis sets
   Anastasios Papadopoulos: AUTO-CI, single reference methods and gradients
   Taras Petrenko         : DFT Hessian,TD-DFT gradient, ASA, ECA, R-Raman, ABS, FL, XAS/XES, NRVS
   Peter Pinski           : DLPNO-MP2, DLPNO-MP2 Gradient
   Christoph Reimann      : Effective Core Potentials
   Marius Retegan         : Local ZFS, SOC
   Christoph Riplinger    : Optimizer, TS searches, QM/MM, DLPNO-CCSD(T), (RO)-DLPNO pert. Triples
   Tobias Risthaus        : Range-separated hybrids, TD-DFT gradient, RPA, STAB
   Michael Roemelt        : Original ROCIS implementation
   Masaaki Saitow         : Open-shell DLPNO-CCSD energy and density
   Barbara Sandhoefer     : DKH picture change effects
   Avijit Sen             : IP-ROCIS
   Kantharuban Sivalingam : CASSCF convergence, NEVPT2, FIC-MRCI
   Bernardo de Souza      : ESD, SOC TD-DFT
   Georgi Stoychev        : AutoAux, RI-MP2 NMR, DLPNO-MP2 response
   Willem Van den Heuvel  : Paramagnetic NMR
   Boris Wezisla          : Elementary symmetry handling
   Frank Wennmohs         : Technical directorship


 We gratefully acknowledge several colleagues who have allowed us to
 interface, adapt or use parts of their codes:
   Stefan Grimme, W. Hujo, H. Kruse, P. Pracht,  : VdW corrections, initial TS optimization,
                  C. Bannwarth, S. Ehlert          DFT functionals, gCP, sTDA/sTD-DF
   Ed Valeev, F. Pavosevic, A. Kumar             : LibInt (2-el integral package), F12 methods
   Garnet Chan, S. Sharma, J. Yang, R. Olivares  : DMRG
   Ulf Ekstrom                                   : XCFun DFT Library
   Mihaly Kallay                                 : mrcc  (arbitrary order and MRCC methods)
   Jiri Pittner, Ondrej Demel                    : Mk-CCSD
   Frank Weinhold                                : gennbo (NPA and NBO analysis)
   Christopher J. Cramer and Donald G. Truhlar   : smd solvation model
   Lars Goerigk                                  : TD-DFT with DH, B97 family of functionals
   V. Asgeirsson, H. Jonsson                     : NEB implementation
   FAccTs GmbH                                   : IRC, NEB, NEB-TS, DLPNO-Multilevel, CI-OPT
                                                   MM, QMMM, 2- and 3-layer-ONIOM, Crystal-QMMM,
                                                   LR-CPCM, SF, NACMEs, symmetry and pop. for TD-DFT,
                                                   nearIR, NL-DFT gradient (VV10), updates on ESD,
                                                   ML-optimized integration grids
   S Lehtola, MJT Oliveira, MAL Marques          : LibXC Library
   Liviu Ungur et al                             : ANISO software


 Your calculation uses the libint2 library for the computation of 2-el integrals
 For citations please refer to: http://libint.valeyev.net

 Your ORCA version has been built with support for libXC version: 5.1.0
 For citations please refer to: https://tddft.org/programs/libxc/

 This ORCA versions uses:
   CBLAS   interface :  Fast vector & matrix operations
   LAPACKE interface :  Fast linear algebra routines
   SCALAPACK package :  Parallel linear algebra routines
   Shared memory     :  Shared parallel matrices
   BLAS/LAPACK       :  OpenBLAS 0.3.15  USE64BITINT DYNAMIC_ARCH NO_AFFINITY Zen SINGLE_THREADED
        Core in use  :  Zen
   Copyright (c) 2011-2014, The OpenBLAS Project


XCFun DFT library Copyright 2009-2010 Ulf Ekstrom and contributors.
See http://admol.org/xcfun for more information.
This is free software; see the source code for copying conditions.
There is ABSOLUTELY NO WARRANTY; not even for MERCHANTABILITY or FITNESS FOR A PARTICULAR PURPOSE.
For details see the documentation.
Scientific users of this library should cite U. Ekstrom, L. Visscher, R. Bast, A. J. Thorvaldsen and K. Ruud;
J.Chem.Theor.Comp. 2010, DOI: 10.1021/ct100117s
XCFun Version 0.99 

================================================================================

----- Orbital basis set information -----
Your calculation utilizes the basis: def2-SVP
   F. Weigend and R. Ahlrichs, Phys. Chem. Chem. Phys. 7, 3297 (2005).

----- AuxJ basis set information -----
Your calculation utilizes the auxiliary basis: def2/J
   F. Weigend, Phys. Chem. Chem. Phys. 8, 1057 (2006).

================================================================================
                                        WARNINGS
                       Please study these warnings very carefully!
================================================================================


WARNING: Geometry Optimization
  ===> : Switching off AutoStart
         For restart on a previous wavefunction, please use MOREAD

WARNING: Minnesota functionals are quite sensitive to the integration grid.
         see SE Wheeler, KN Houk, JCTC 2010, 6, 395,
             N Mardirossian, M Head-Gordon, JCTC 2016, 12, 4303.
         DEFGRID3 seems to be a minimum grid for reliable results with these functionals!
  ===> : Please increase the integration grid!


INFO   : the flag for use of the SHARK integral package has been found!

================================================================================
                                       INPUT FILE
================================================================================
NAME = calc.inp
|  1> !OPT M062X Def2-SVP
|  2> *xyz 0 1
|  3> C    4.29180000   3.65880000   0.00000000
|  4> H    4.64850000   2.65000000   0.00000000
|  5> H    4.64850000   4.16320000   0.87070000
|  6> H    4.64850000   4.16320000  -0.87970000
|  7> H    3.22180000   3.65880000   0.00000000
|  8> *
|  9> %MaxCore 2000
| 10> %pal
| 11> nprocs 1
| 12> endd                         ****END OF INPUT****
================================================================================

                       *****************************
                       * Geometry Optimization Run *
                       *****************************

Geometry optimization settings:
Update method            Update   .... BFGS
Choice of coordinates    CoordSys .... Z-matrix Internals
Initial Hessian          InHess   .... Almoef's Model

Convergence Tolerances:
Energy Change            TolE     ....  5.0000e-06 Eh
Max. Gradient            TolMAXG  ....  3.0000e-04 Eh/bohr
RMS Gradient             TolRMSG  ....  1.0000e-04 Eh/bohr
Max. Displacement        TolMAXD  ....  4.0000e-03 bohr
RMS Displacement         TolRMSD  ....  2.0000e-03 bohr
Strict Convergence                ....  False
------------------------------------------------------------------------------
                        ORCA OPTIMIZATION COORDINATE SETUP
------------------------------------------------------------------------------

The optimization will be done in new redundant internal coordinates
Making redundant internal coordinates   ...  (new redundants) done
Evaluating the initial hessian          ...  (Almloef) done
Evaluating the coordinates              ...  done
Calculating the B-matrix                .... done
Calculating the G-matrix                .... done
Diagonalizing the G-matrix              .... done
The first mode is                       ....    1
The number of degrees of freedom        ....    9

    -----------------------------------------------------------------
                    Redundant Internal Coordinates


    -----------------------------------------------------------------
         Definition                    Initial Value    Approx d2E/dq
    -----------------------------------------------------------------
      1. B(H   1,C   0)                  1.0700         0.387545   
      2. B(H   2,C   0)                  1.0676         0.390984   
      3. B(H   3,C   0)                  1.0750         0.380564   
      4. B(H   4,C   0)                  1.0700         0.387554   
      5. A(H   1,C   0,H   3)          109.3762         0.296807   
      6. A(H   2,C   0,H   3)          109.5644         0.297222   
      7. A(H   1,C   0,H   4)          109.4730         0.297664   
      8. A(H   2,C   0,H   4)          109.5186         0.298082   
      9. A(H   3,C   0,H   4)          109.3798         0.296808   
     10. A(H   1,C   0,H   2)          109.5151         0.298081   
    -----------------------------------------------------------------

Number of atoms                         .... 5
Number of degrees of freedom            .... 10

         *************************************************************
         *                GEOMETRY OPTIMIZATION CYCLE   1            *
         *************************************************************
---------------------------------
CARTESIAN COORDINATES (ANGSTROEM)
---------------------------------
  C      4.291800    3.658800    0.000000
  H      4.648500    2.650000    0.000000
  H      4.648500    4.163200    0.870700
  H      4.648500    4.163200   -0.879700
  H      3.221800    3.658800    0.000000

----------------------------
CARTESIAN COORDINATES (A.U.)
----------------------------
  NO LB      ZA    FRAG     MASS         X           Y           Z
   0 C     6.0000    0    12.011    8.110327    6.914130    0.000000
   1 H     1.0000    0     1.008    8.784392    5.007774    0.000000
   2 H     1.0000    0     1.008    8.784392    7.867308    1.645385
   3 H     1.0000    0     1.008    8.784392    7.867308   -1.662392
   4 H     1.0000    0     1.008    6.088320    6.914130    0.000000

--------------------------------
INTERNAL COORDINATES (ANGSTROEM)
--------------------------------
 C      0   0   0     0.000000000000     0.00000000     0.00000000
 H      1   0   0     1.070005761667     0.00000000     0.00000000
 H      1   2   0     1.067601395653   109.51505982     0.00000000
 H      1   2   3     1.074954110648   109.37622264   120.08276913
 H      1   2   3     1.070000000000   109.47300474   239.91392657

---------------------------
INTERNAL COORDINATES (A.U.)
---------------------------
 C      0   0   0     0.000000000000     0.00000000     0.00000000
 H      1   0   0     2.022017851268     0.00000000     0.00000000
 H      1   2   0     2.017474257976   109.51505982     0.00000000
 H      1   2   3     2.031368875658   109.37622264   120.08276913
 H      1   2   3     2.022006963296   109.47300474   239.91392657

---------------------
BASIS SET INFORMATION
---------------------
There are 2 groups of distinct atoms

 Group   1 Type C   : 7s4p1d contracted to 3s2p1d pattern {511/31/1}
 Group   2 Type H   : 4s1p contracted to 2s1p pattern {31/1}

Atom   0C    basis set group =>   1
Atom   1H    basis set group =>   2
Atom   2H    basis set group =>   2
Atom   3H    basis set group =>   2
Atom   4H    basis set group =>   2
---------------------------------
AUXILIARY/J BASIS SET INFORMATION
---------------------------------
There are 2 groups of distinct atoms

 Group   1 Type C   : 12s5p4d2f1g contracted to 6s4p3d1f1g pattern {711111/2111/211/2/1}
 Group   2 Type H   : 5s2p1d contracted to 3s1p1d pattern {311/2/1}

Atom   0C    basis set group =>   1
Atom   1H    basis set group =>   2
Atom   2H    basis set group =>   2
Atom   3H    basis set group =>   2
Atom   4H    basis set group =>   2
------------------------------------------------------------------------------
                           ORCA GTO INTEGRAL CALCULATION
                           -- RI-GTO INTEGRALS CHOSEN --
------------------------------------------------------------------------------
------------------------------------------------------------------------------
                   ___                                                        
                  /   \      - P O W E R E D   B Y -                         
                 /     \                                                     
                 |  |  |   _    _      __       _____    __    __             
                 |  |  |  | |  | |    /  \     |  _  \  |  |  /  |          
                  \  \/   | |  | |   /    \    | | | |  |  | /  /          
                 / \  \   | |__| |  /  /\  \   | |_| |  |  |/  /          
                |  |  |   |  __  | /  /__\  \  |    /   |      \           
                |  |  |   | |  | | |   __   |  |    \   |  |\   \          
                \     /   | |  | | |  |  |  |  | |\  \  |  | \   \       
                 \___/    |_|  |_| |__|  |__|  |_| \__\ |__|  \__/        
                                                                              
                      - O R C A' S   B I G   F R I E N D -                    
                                      &                                       
                       - I N T E G R A L  F E E D E R -                       
                                                                              
 v1 FN, 2020, v2 2021                                                         
------------------------------------------------------------------------------


Reading SHARK input file calc.SHARKINP.tmp ... ok
----------------------
SHARK INTEGRAL PACKAGE
----------------------

Number of atoms                             ...      5
Number of basis functions                   ...     34
Number of shells                            ...     18
Maximum angular momentum                    ...      2
Integral batch strategy                     ... SHARK/LIBINT Hybrid
RI-J (if used) integral strategy            ... SPLIT-RIJ (Revised 2003 algorithm where possible)
Printlevel                                  ...      1
Contraction scheme used                     ... SEGMENTED contraction
Coulomb Range Separation                    ... NOT USED
Exchange Range Separation                   ... NOT USED
Finite Nucleus Model                        ... NOT USED
Auxiliary Coulomb fitting basis             ... AVAILABLE
   # of basis functions in Aux-J            ...     93
   # of shells in Aux-J                     ...     35
   Maximum angular momentum in Aux-J        ...      4
Auxiliary J/K fitting basis                 ... NOT available
Auxiliary Correlation fitting basis         ... NOT available
Auxiliary 'external' fitting basis          ... NOT available
Integral threshold                          ...     2.500000e-11
Primitive cut-off                           ...     2.500000e-12
Primitive pair pre-selection threshold      ...     2.500000e-12

Calculating pre-screening integrals         ... done (  0.0 sec) Dimension = 18
Organizing shell pair data                  ... done (  0.0 sec)
Shell pair information
Total number of shell pairs                 ...       171
Shell pairs after pre-screening             ...       171
Total number of primitive shell pairs       ...       553
Primitive shell pairs kept                  ...       535
          la=0 lb=0:     66 shell pairs
          la=1 lb=0:     66 shell pairs
          la=1 lb=1:     21 shell pairs
          la=2 lb=0:     11 shell pairs
          la=2 lb=1:      6 shell pairs
          la=2 lb=2:      1 shell pairs

Calculating one electron integrals          ... done (  0.0 sec)
Calculating RI/J V-Matrix + Cholesky decomp.... done (  0.0 sec)
Calculating Nuclear repulsion               ... done (  0.0 sec) ENN=     13.678408659377 Eh

SHARK setup successfully completed in   0.1 seconds

Maximum memory used throughout the entire GTOINT-calculation: 8.8 MB
-------------------------------------------------------------------------------
                                 ORCA SCF
-------------------------------------------------------------------------------

------------
SCF SETTINGS
------------
Hamiltonian:
 Density Functional     Method          .... DFT(GTOs)
 Exchange Functional    Exchange        .... M062X
 Correlation Functional Correlation     .... M062X
 Gradients option       PostSCFGGA      .... off
 Hybrid DFT is turned on
   Fraction HF Exchange ScalHFX         ....  0.540000
   Scaling of DF-GGA-X  ScalDFX         ....  0.460000
   Scaling of DF-GGA-C  ScalDFC         ....  1.000000
   Scaling of DF-LDA-C  ScalLDAC        ....  1.000000
   Perturbative correction              ....  0.000000
   Density functional embedding theory  .... OFF
 RI-approximation to the Coulomb term is turned on
   Number of AuxJ basis functions       .... 93
   RIJ-COSX (HFX calculated with COS-X)).... on


General Settings:
 Integral files         IntName         .... calc
 Hartree-Fock type      HFTyp           .... RHF
 Total Charge           Charge          ....    0
 Multiplicity           Mult            ....    1
 Number of Electrons    NEL             ....   10
 Basis Dimension        Dim             ....   34
 Nuclear Repulsion      ENuc            ....     13.6784086594 Eh

Convergence Acceleration:
 DIIS                   CNVDIIS         .... on
   Start iteration      DIISMaxIt       ....    12
   Startup error        DIISStart       ....  0.200000
   # of expansion vecs  DIISMaxEq       ....     5
   Bias factor          DIISBfac        ....   1.050
   Max. coefficient     DIISMaxC        ....  10.000
 Trust-Rad. Augm. Hess. CNVTRAH         .... auto
   Auto Start mean grad. ratio tolernc. ....  1.125000
   Auto Start start iteration           ....    20
   Auto Start num. interpolation iter.  ....    10
   Max. Number of Micro iterations      ....    16
   Max. Number of Macro iterations      .... Maxiter - #DIIS iter
   Number of Davidson start vectors     ....     2
   Converg. threshold I  (grad. norm)   ....   1.000e-05
   Converg. threshold II (energy diff.) ....   1.000e-08
   Grad. Scal. Fac. for Micro threshold ....   0.100
   Minimum threshold for Micro iter.    ....   0.010
   NR start threshold (gradient norm)   ....   0.001
   Initial trust radius                 ....   0.400
   Minimum AH scaling param. (alpha)    ....   1.000
   Maximum AH scaling param. (alpha)    .... 1000.000
   Orbital update algorithm             .... Taylor
   White noise on init. David. guess    .... on
   Maximum white noise                  ....   0.010
   Quad. conv. algorithm                .... NR
 SOSCF                  CNVSOSCF        .... on
   Start iteration      SOSCFMaxIt      ....   150
   Startup grad/error   SOSCFStart      ....  0.003300
 Level Shifting         CNVShift        .... on
   Level shift para.    LevelShift      ....    0.2500
   Turn off err/grad.   ShiftErr        ....    0.0010
 Zerner damping         CNVZerner       .... off
 Static damping         CNVDamp         .... on
   Fraction old density DampFac         ....    0.7000
   Max. Damping (<1)    DampMax         ....    0.9800
   Min. Damping (>=0)   DampMin         ....    0.0000
   Turn off err/grad.   DampErr         ....    0.1000
 Fernandez-Rico         CNVRico         .... off

SCF Procedure:
 Maximum # iterations   MaxIter         ....   125
 SCF integral mode      SCFMode         .... Direct
   Integral package                     .... SHARK and LIBINT hybrid scheme
 Reset frequency        DirectResetFreq ....    20
 Integral Threshold     Thresh          ....  2.500e-11 Eh
 Primitive CutOff       TCut            ....  2.500e-12 Eh

Convergence Tolerance:
 Convergence Check Mode ConvCheckMode   .... Total+1el-Energy
 Convergence forced     ConvForced      .... 0
 Energy Change          TolE            ....  1.000e-08 Eh
 1-El. energy change                    ....  1.000e-05 Eh
 Orbital Gradient       TolG            ....  1.000e-05
 Orbital Rotation angle TolX            ....  1.000e-05
 DIIS Error             TolErr          ....  5.000e-07


Diagonalization of the overlap matrix:
Smallest eigenvalue                        ... 1.316e-02
Time for diagonalization                   ...    0.000 sec
Threshold for overlap eigenvalues          ... 1.000e-08
Number of eigenvalues below threshold      ... 0
Time for construction of square roots      ...    0.000 sec
Total time needed                          ...    0.000 sec

Time for model grid setup =    0.009 sec

------------------------------
INITIAL GUESS: MODEL POTENTIAL
------------------------------
Loading Hartree-Fock densities                     ... done
Calculating cut-offs                               ... done
Initializing the effective Hamiltonian             ... done
Setting up the integral package (SHARK)            ... done
Starting the Coulomb interaction                   ... done (   0.0 sec)
Reading the grid                                   ... done
Mapping shells                                     ... done
Starting the XC term evaluation                    ... done (   0.0 sec)
  promolecular density results
     # of electrons  =      9.997193208
     EX              =     -6.279781011
     EC              =     -0.295897027
     EX+EC           =     -6.575678038
Transforming the Hamiltonian                       ... done (   0.0 sec)
Diagonalizing the Hamiltonian                      ... done (   0.0 sec)
Back transforming the eigenvectors                 ... done (   0.0 sec)
Now organizing SCF variables                       ... done
                      ------------------
                      INITIAL GUESS DONE (   0.0 sec)
                      ------------------
-------------------
DFT GRID GENERATION
-------------------

General Integration Accuracy     IntAcc      ... 4.388
Radial Grid Type                 RadialGrid  ... OptM3 with GC (2021)
Angular Grid (max. ang.)         AngularGrid ... 4 (Lebedev-302)
Angular grid pruning method      GridPruning ... 4 (adaptive)
Weight generation scheme         WeightScheme... Becke
Basis function cutoff            BFCut       ... 1.0000e-11
Integration weight cutoff        WCut        ... 1.0000e-14
Angular grids for H and He will be reduced by one unit
Partially contracted basis set               ... off
Rotationally invariant grid construction     ... off

Total number of grid points                  ...    19238
Total number of batches                      ...      303
Average number of points per batch           ...       63
Average number of grid points per atom       ...     3848
Time for grid setup =    0.052 sec

--------------------
COSX GRID GENERATION
--------------------

GRIDX 1
-------
General Integration Accuracy     IntAcc      ... 3.816
Radial Grid Type                 RadialGrid  ... OptM3 with GC (2021)
Angular Grid (max. ang.)         AngularGrid ... 1 (Lebedev-50)
Angular grid pruning method      GridPruning ... 4 (adaptive)
Weight generation scheme         WeightScheme... Becke
Basis function cutoff            BFCut       ... 1.0000e-11
Integration weight cutoff        WCut        ... 1.0000e-14
Angular grids for H and He will be reduced by one unit
Partially contracted basis set               ... on
Rotationally invariant grid construction     ... off

Total number of grid points                  ...     2520
Total number of batches                      ...       42
Average number of points per batch           ...       60
Average number of grid points per atom       ...      504
UseSFitting                                  ... on

GRIDX 2
-------
General Integration Accuracy     IntAcc      ... 4.020
Radial Grid Type                 RadialGrid  ... OptM3 with GC (2021)
Angular Grid (max. ang.)         AngularGrid ... 2 (Lebedev-110)
Angular grid pruning method      GridPruning ... 4 (adaptive)
Weight generation scheme         WeightScheme... Becke
Basis function cutoff            BFCut       ... 1.0000e-11
Integration weight cutoff        WCut        ... 1.0000e-14
Angular grids for H and He will be reduced by one unit
Partially contracted basis set               ... on
Rotationally invariant grid construction     ... off

Total number of grid points                  ...     5072
Total number of batches                      ...       81
Average number of points per batch           ...       62
Average number of grid points per atom       ...     1014
UseSFitting                                  ... on

GRIDX 3
-------
General Integration Accuracy     IntAcc      ... 4.338
Radial Grid Type                 RadialGrid  ... OptM3 with GC (2021)
Angular Grid (max. ang.)         AngularGrid ... 3 (Lebedev-194)
Angular grid pruning method      GridPruning ... 4 (adaptive)
Weight generation scheme         WeightScheme... Becke
Basis function cutoff            BFCut       ... 1.0000e-11
Integration weight cutoff        WCut        ... 1.0000e-14
Angular grids for H and He will be reduced by one unit
Partially contracted basis set               ... on
Rotationally invariant grid construction     ... off

Total number of grid points                  ...    11157
Total number of batches                      ...      176
Average number of points per batch           ...       63
Average number of grid points per atom       ...     2231
UseSFitting                                  ... on

Time for X-Grid setup             =    0.040 sec

--------------
SCF ITERATIONS
--------------
ITER       Energy         Delta-E        Max-DP      RMS-DP      [F,P]     Damp
               ***  Starting incremental Fock matrix formation  ***
  0    -40.3724531754   0.000000000000 0.07993884  0.00463648  0.2004147 0.7000
  1    -40.4048277655  -0.032374590132 0.05260687  0.00334878  0.1160444 0.7000
                               ***Turning on DIIS***
  2    -40.4206690305  -0.015841264913 0.08800877  0.00617937  0.0552222 0.0000
  3    -40.4433522728  -0.022683242336 0.03883891  0.00231518  0.0518741 0.0000
  4    -40.4482453849  -0.004893112134 0.00515944  0.00041446  0.0093029 0.0000
                      *** Initiating the SOSCF procedure ***
                           *** Shutting down DIIS ***
                      *** Re-Reading the Fockian *** 
                      *** Removing any level shift *** 
ITER      Energy       Delta-E        Grad      Rot      Max-DP    RMS-DP
  5    -40.44840523  -0.0001598481  0.000651  0.000651  0.001028  0.000118
               *** Restarting incremental Fock matrix formation ***
  6    -40.44844298  -0.0000377502  0.000271  0.000418  0.000691  0.000077
  7    -40.44844347  -0.0000004860  0.000181  0.000085  0.000395  0.000022
  8    -40.44844369  -0.0000002210  0.000013  0.000009  0.000025  0.000003
                 **** Energy Check signals convergence ****
              ***Rediagonalizing the Fockian in SOSCF/NRSCF***

               *****************************************************
               *                     SUCCESS                       *
               *           SCF CONVERGED AFTER   9 CYCLES          *
               *****************************************************

Old exchange energy                            =     -3.565698536 Eh
New exchange energy                            =     -3.565730889 Eh
Exchange energy change after final integration =     -0.000032353 Eh
Total energy after final integration           =    -40.448476044 Eh
Final COS-X integration done in                =     0.108 sec

----------------
TOTAL SCF ENERGY
----------------

Total Energy       :          -40.44847604 Eh           -1100.65899 eV

Components:
Nuclear Repulsion  :           13.67840866 Eh             372.20842 eV
Electronic Energy  :          -54.12688470 Eh           -1472.86741 eV
One Electron Energy:          -80.19621390 Eh           -2182.24992 eV
Two Electron Energy:           26.06932920 Eh             709.38251 eV
Max COSX asymmetry :            0.00000121 Eh               0.00003 eV

Virial components:
Potential Energy   :          -80.43572390 Eh           -2188.76732 eV
Kinetic Energy     :           39.98724786 Eh            1088.10833 eV
Virial Ratio       :            2.01153438


DFT components:
N(Alpha)           :        4.999999783770 electrons
N(Beta)            :        4.999999783770 electrons
N(Total)           :        9.999999567540 electrons
E(XC)              :       -3.320183935747 Eh       
DFET-embed. en.    :        0.000000000000 Eh       

---------------
SCF CONVERGENCE
---------------

  Last Energy change         ...   -3.3321e-10  Tolerance :   1.0000e-08
  Last MAX-Density change    ...    3.3307e-16  Tolerance :   1.0000e-07
  Last RMS-Density change    ...    3.2574e-17  Tolerance :   5.0000e-09
  Last Orbital Gradient      ...    1.3230e-06  Tolerance :   1.0000e-05
  Last Orbital Rotation      ...    1.2033e-06  Tolerance :   1.0000e-05

             **** THE GBW FILE WAS UPDATED (calc.gbw) ****
             **** DENSITY calc.scfp WAS UPDATED ****
             **** ENERGY FILE WAS UPDATED (calc.en.tmp) ****
             **** THE GBW FILE WAS UPDATED (calc.gbw) ****
             **** DENSITY calc.scfp WAS UPDATED ****
----------------
ORBITAL ENERGIES
----------------

  NO   OCC          E(Eh)            E(eV) 
   0   2.0000     -10.526325      -286.4359 
   1   2.0000      -0.780768       -21.2458 
   2   2.0000      -0.457307       -12.4439 
   3   2.0000      -0.456754       -12.4289 
   4   2.0000      -0.455692       -12.4000 
   5   0.0000       0.119713         3.2576 
   6   0.0000       0.192519         5.2387 
   7   0.0000       0.193224         5.2579 
   8   0.0000       0.193522         5.2660 
   9   0.0000       0.465148        12.6573 
  10   0.0000       0.465427        12.6649 
  11   0.0000       0.465678        12.6717 
  12   0.0000       0.725915        19.7532 
  13   0.0000       0.756421        20.5833 
  14   0.0000       0.758571        20.6418 
  15   0.0000       0.759532        20.6679 
  16   0.0000       0.850888        23.1538 
  17   0.0000       1.155974        31.4556 
  18   0.0000       1.156419        31.4678 
  19   0.0000       1.603321        43.6286 
  20   0.0000       1.603474        43.6328 
  21   0.0000       1.604779        43.6683 
  22   0.0000       1.836843        49.9830 
  23   0.0000       1.840300        50.0771 
  24   0.0000       1.841302        50.1044 
  25   0.0000       2.191898        59.6446 
  26   0.0000       2.192477        59.6603 
  27   0.0000       2.194352        59.7113 
  28   0.0000       2.589078        70.4524 
  29   0.0000       2.589647        70.4679 
  30   0.0000       2.677564        72.8602 
  31   0.0000       2.966180        80.7139 
  32   0.0000       2.972108        80.8752 
  33   0.0000       2.974587        80.9426 

                    ********************************
                    * MULLIKEN POPULATION ANALYSIS *
                    ********************************

-----------------------
MULLIKEN ATOMIC CHARGES
-----------------------
   0 C :   -0.177347
   1 H :    0.044433
   2 H :    0.043860
   3 H :    0.045027
   4 H :    0.044027
Sum of atomic charges:   -0.0000000

--------------------------------
MULLIKEN REDUCED ORBITAL CHARGES
--------------------------------
  0 C s       :     3.045011  s :     3.045011
      pz      :     1.036910  p :     3.111674
      px      :     1.037600
      py      :     1.037164
      dz2     :     0.005179  d :     0.020661
      dxz     :     0.002286
      dyz     :     0.004568
      dx2y2   :     0.006338
      dxy     :     0.002289
  1 H s       :     0.931195  s :     0.931195
      pz      :     0.004686  p :     0.024372
      px      :     0.005841
      py      :     0.013846
  2 H s       :     0.931639  s :     0.931639
      pz      :     0.011581  p :     0.024501
      px      :     0.005884
      py      :     0.007037
  3 H s       :     0.930836  s :     0.930836
      pz      :     0.011493  p :     0.024137
      px      :     0.005760
      py      :     0.006883
  4 H s       :     0.931585  s :     0.931585
      pz      :     0.004683  p :     0.024388
      px      :     0.015018
      py      :     0.004687


                     *******************************
                     * LOEWDIN POPULATION ANALYSIS *
                     *******************************

----------------------
LOEWDIN ATOMIC CHARGES
----------------------
   0 C :   -0.110888
   1 H :    0.027612
   2 H :    0.027031
   3 H :    0.028656
   4 H :    0.027589

-------------------------------
LOEWDIN REDUCED ORBITAL CHARGES
-------------------------------
  0 C s       :     2.818044  s :     2.818044
      pz      :     1.078186  p :     3.235701
      px      :     1.078839
      py      :     1.078675
      dz2     :     0.014319  d :     0.057143
      dxz     :     0.006330
      dyz     :     0.012657
      dx2y2   :     0.017490
      dxy     :     0.006347
  1 H s       :     0.904461  s :     0.904461
      pz      :     0.013784  p :     0.067928
      px      :     0.016749
      py      :     0.037395
  2 H s       :     0.904597  s :     0.904597
      pz      :     0.031601  p :     0.068372
      px      :     0.016902
      py      :     0.019869
  3 H s       :     0.904324  s :     0.904324
      pz      :     0.031253  p :     0.067019
      px      :     0.016424
      py      :     0.019342
  4 H s       :     0.904490  s :     0.904490
      pz      :     0.013781  p :     0.067922
      px      :     0.040349
      py      :     0.013791


                      *****************************
                      * MAYER POPULATION ANALYSIS *
                      *****************************

  NA   - Mulliken gross atomic population
  ZA   - Total nuclear charge
  QA   - Mulliken gross atomic charge
  VA   - Mayer's total valence
  BVA  - Mayer's bonded valence
  FA   - Mayer's free valence

  ATOM       NA         ZA         QA         VA         BVA        FA
  0 C      6.1773     6.0000    -0.1773     3.9908     3.9908     0.0000
  1 H      0.9556     1.0000     0.0444     0.9898     0.9898    -0.0000
  2 H      0.9561     1.0000     0.0439     0.9900     0.9900    -0.0000
  3 H      0.9550     1.0000     0.0450     0.9897     0.9897    -0.0000
  4 H      0.9560     1.0000     0.0440     0.9901     0.9901    -0.0000

  Mayer bond orders larger than 0.100000
B(  0-C ,  1-H ) :   0.9977 B(  0-C ,  2-H ) :   0.9977 B(  0-C ,  3-H ) :   0.9976 
B(  0-C ,  4-H ) :   0.9978 

-------
TIMINGS
-------

Total SCF time: 0 days 0 hours 0 min 1 sec 

Total time                  ....       1.241 sec
Sum of individual times     ....       1.190 sec  ( 95.9%)

Fock matrix formation       ....       1.079 sec  ( 86.9%)
  Split-RI-J                ....       0.079 sec  (  7.3% of F)
  Chain of spheres X        ....       0.494 sec  ( 45.8% of F)
  XC integration            ....       0.515 sec  ( 47.7% of F)
    Basis function eval.    ....       0.103 sec  ( 19.9% of XC)
    Density eval.           ....       0.121 sec  ( 23.4% of XC)
    XC-Functional eval.     ....       0.129 sec  ( 25.1% of XC)
    XC-Potential eval.      ....       0.137 sec  ( 26.5% of XC)
Diagonalization             ....       0.001 sec  (  0.1%)
Density matrix formation    ....       0.000 sec  (  0.0%)
Population analysis         ....       0.001 sec  (  0.0%)
Initial guess               ....       0.008 sec  (  0.7%)
Orbital Transformation      ....       0.000 sec  (  0.0%)
Orbital Orthonormalization  ....       0.000 sec  (  0.0%)
DIIS solution               ....       0.000 sec  (  0.0%)
SOSCF solution              ....       0.000 sec  (  0.0%)
Grid generation             ....       0.101 sec  (  8.1%)

Maximum memory used throughout the entire SCF-calculation: 44.0 MB

-------------------------   --------------------
FINAL SINGLE POINT ENERGY       -40.448476043879
-------------------------   --------------------

------------------------------------------------------------------------------
                         ORCA SCF GRADIENT CALCULATION
------------------------------------------------------------------------------

 ... reading COSX grid (gridx3)
Gradient of the Kohn-Sham DFT energy:
Kohn-Sham wavefunction type      ... RKS
Hartree-Fock exchange scaling    ...    0.540
Number of operators              ...    1
Number of atoms                  ...    5
Basis set dimensions             ...   34
Integral neglect threshold       ... 2.5e-11
Integral primitive cutoff        ... 2.5e-12
SHARK Integral package           ... ON

Nuc. rep. gradient       (SHARK) ... done (  0.0 sec)
HCore & Overlap gradient (SHARK) ... done (  0.0 sec)
RI-J gradient            (SHARK) ... done (  0.0 sec)
COSX-gradient                    ... done (  0.1 sec)
Exchange-correlation gradient    ... done

------------------
CARTESIAN GRADIENT
------------------

   1   C   :   -0.000588176   -0.000852606    0.004589571
   2   H   :   -0.006291981    0.018113296   -0.000032902
   3   H   :   -0.007038636   -0.009982525   -0.017038418
   4   H   :   -0.005158878   -0.007329326    0.012519869
   5   H   :    0.019132250   -0.000050875   -0.000032309

Difference to translation invariance:
           :    0.0000545789   -0.0001020355    0.0000058111

Difference to rotation invariance:
           :    0.0000367982   -0.0000496695   -0.0009301640

Norm of the cartesian gradient     ...    0.0378476725
RMS gradient                       ...    0.0097722270
MAX gradient                       ...    0.0191322502

-------
TIMINGS
-------

Total SCF gradient time            ...        0.366 sec

One electron gradient       ....       0.003 sec  (  0.7%)
RI-J Coulomb gradient       ....       0.027 sec  (  7.5%)
COSX gradient               ....       0.123 sec  ( 33.5%)
XC gradient                 ....       0.144 sec  ( 39.4%)

Maximum memory used throughout the entire SCFGRAD-calculation: 33.6 MB
------------------------------------------------------------------------------
                         ORCA GEOMETRY RELAXATION STEP
------------------------------------------------------------------------------

Reading the OPT-File                    .... done
Getting information on internals        .... done
Copying old internal coords+grads       .... done
Making the new internal coordinates     .... (new redundants).... done
Validating the new internal coordinates .... (new redundants).... done
Calculating the B-matrix                .... done
Calculating the G,G- and P matrices     .... done
Transforming gradient to internals      .... done
Projecting the internal gradient        .... done
Number of atoms                         ....   5
Number of internal coordinates          ....  10
Current Energy                          ....   -40.448476044 Eh
Current gradient norm                   ....     0.037847673 Eh/bohr
Maximum allowed component of the step   ....  0.300
Current trust radius                    ....  0.300
Evaluating the initial hessian          ....  (Almloef) done
Projecting the Hessian                  .... done
Forming the augmented Hessian           .... done
Diagonalizing the augmented Hessian     .... done
Last element of RFO vector              ....  0.995419136
Lowest eigenvalues of augmented Hessian:
 -0.003606870  0.296807052  0.297033871  0.297443524  0.297853023
Length of the computed step             ....  0.096047212
The final length of the internal step   ....  0.096047212
Converting the step to cartesian space:
 Initial RMS(Int)=    0.0303727953
Transforming coordinates:
 Iter   0:  RMS(Cart)=    0.0247653059 RMS(Int)=    0.0303727885
 Iter   1:  RMS(Cart)=    0.0000046803 RMS(Int)=    0.0000051150
 Iter   2:  RMS(Cart)=    0.0000001025 RMS(Int)=    0.0000001116
 Iter   3:  RMS(Cart)=    0.0000000023 RMS(Int)=    0.0000000024
done
Storing new coordinates                 .... done

                                .--------------------.
          ----------------------|Geometry convergence|-------------------------
          Item                value                   Tolerance       Converged
          ---------------------------------------------------------------------
          RMS gradient        0.0118758209            0.0001000000      NO
          MAX gradient        0.0209589737            0.0003000000      NO
          RMS step            0.0303727953            0.0020000000      NO
          MAX step            0.0531157474            0.0040000000      NO
          ........................................................
          Max(Bonds)      0.0281      Max(Angles)    0.03
          Max(Dihed)        0.00      Max(Improp)    0.00
          ---------------------------------------------------------------------

The optimization has not yet converged - more geometry cycles are needed


    ---------------------------------------------------------------------------
                         Redundant Internal Coordinates
                            (Angstroem and degrees)

        Definition                    Value    dE/dq     Step     New-Value
    ----------------------------------------------------------------------------
     1. B(H   1,C   0)                1.0700 -0.019198  0.0260    1.0960   
     2. B(H   2,C   0)                1.0676 -0.020959  0.0281    1.0957   
     3. B(H   3,C   0)                1.0750 -0.015390  0.0212    1.0962   
     4. B(H   4,C   0)                1.0700 -0.019121  0.0259    1.0959   
     5. A(H   1,C   0,H   3)          109.38 -0.000122    0.02    109.40   
     6. A(H   2,C   0,H   3)          109.56  0.000177   -0.03    109.53   
     7. A(H   1,C   0,H   4)          109.47  0.000023   -0.00    109.47   
     8. A(H   2,C   0,H   4)          109.52  0.000020   -0.00    109.51   
     9. A(H   3,C   0,H   4)          109.38 -0.000057    0.01    109.39   
    10. A(H   1,C   0,H   2)          109.52 -0.000041    0.01    109.52   
    ----------------------------------------------------------------------------

         *************************************************************
         *                GEOMETRY OPTIMIZATION CYCLE   2            *
         *************************************************************
---------------------------------
CARTESIAN COORDINATES (ANGSTROEM)
---------------------------------
  C      4.291947    3.658946   -0.001181
  H      4.657211    2.625627   -0.001053
  H      4.658078    4.176851    0.892296
  H      4.655784    4.173615   -0.898003
  H      3.196079    3.658962   -0.001058

----------------------------
CARTESIAN COORDINATES (A.U.)
----------------------------
  NO LB      ZA    FRAG     MASS         X           Y           Z
   0 C     6.0000    0    12.011    8.110605    6.914406   -0.002232
   1 H     1.0000    0     1.008    8.800854    4.961715   -0.001990
   2 H     1.0000    0     1.008    8.802491    7.893104    1.686195
   3 H     1.0000    0     1.008    8.798157    7.886990   -1.696980
   4 H     1.0000    0     1.008    6.039714    6.914435   -0.002000

--------------------------------
INTERNAL COORDINATES (ANGSTROEM)
--------------------------------
 C      0   0   0     0.000000000000     0.00000000     0.00000000
 H      1   0   0     1.095977541704     0.00000000     0.00000000
 H      1   2   0     1.095709038556   109.52290807     0.00000000
 H      1   2   3     1.096152902636   109.39956073   120.06047688
 H      1   2   3     1.095868087318   109.46860778   239.91645684

---------------------------
INTERNAL COORDINATES (A.U.)
---------------------------
 C      0   0   0     0.000000000000     0.00000000     0.00000000
 H      1   0   0     2.071097402748     0.00000000     0.00000000
 H      1   2   0     2.070590005332   109.52290807     0.00000000
 H      1   2   3     2.071428786884   109.39956073   120.06047688
 H      1   2   3     2.070890563936   109.46860778   239.91645684

------------------------------------------------------------------------------
                   ___                                                        
                  /   \      - P O W E R E D   B Y -                         
                 /     \                                                     
                 |  |  |   _    _      __       _____    __    __             
                 |  |  |  | |  | |    /  \     |  _  \  |  |  /  |          
                  \  \/   | |  | |   /    \    | | | |  |  | /  /          
                 / \  \   | |__| |  /  /\  \   | |_| |  |  |/  /          
                |  |  |   |  __  | /  /__\  \  |    /   |      \           
                |  |  |   | |  | | |   __   |  |    \   |  |\   \          
                \     /   | |  | | |  |  |  |  | |\  \  |  | \   \       
                 \___/    |_|  |_| |__|  |__|  |_| \__\ |__|  \__/        
                                                                              
                      - O R C A' S   B I G   F R I E N D -                    
                                      &                                       
                       - I N T E G R A L  F E E D E R -                       
                                                                              
 v1 FN, 2020, v2 2021                                                         
------------------------------------------------------------------------------


Reading SHARK input file calc.SHARKINP.tmp ... ok
----------------------
SHARK INTEGRAL PACKAGE
----------------------

Number of atoms                             ...      5
Number of basis functions                   ...     34
Number of shells                            ...     18
Maximum angular momentum                    ...      2
Integral batch strategy                     ... SHARK/LIBINT Hybrid
RI-J (if used) integral strategy            ... SPLIT-RIJ (Revised 2003 algorithm where possible)
Printlevel                                  ...      1
Contraction scheme used                     ... SEGMENTED contraction
Coulomb Range Separation                    ... NOT USED
Exchange Range Separation                   ... NOT USED
Finite Nucleus Model                        ... NOT USED
Auxiliary Coulomb fitting basis             ... AVAILABLE
   # of basis functions in Aux-J            ...     93
   # of shells in Aux-J                     ...     35
   Maximum angular momentum in Aux-J        ...      4
Auxiliary J/K fitting basis                 ... NOT available
Auxiliary Correlation fitting basis         ... NOT available
Auxiliary 'external' fitting basis          ... NOT available
Integral threshold                          ...     2.500000e-11
Primitive cut-off                           ...     2.500000e-12
Primitive pair pre-selection threshold      ...     2.500000e-12

Calculating pre-screening integrals         ... done (  0.0 sec) Dimension = 18
Organizing shell pair data                  ... done (  0.0 sec)
Shell pair information
Total number of shell pairs                 ...       171
Shell pairs after pre-screening             ...       171
Total number of primitive shell pairs       ...       553
Primitive shell pairs kept                  ...       535
          la=0 lb=0:     66 shell pairs
          la=1 lb=0:     66 shell pairs
          la=1 lb=1:     21 shell pairs
          la=2 lb=0:     11 shell pairs
          la=2 lb=1:      6 shell pairs
          la=2 lb=2:      1 shell pairs

Calculating one electron integrals          ... done (  0.0 sec)
Calculating RI/J V-Matrix + Cholesky decomp.... done (  0.0 sec)
Calculating Nuclear repulsion               ... done (  0.0 sec) ENN=     13.362730070325 Eh

SHARK setup successfully completed in   0.0 seconds

Maximum memory used throughout the entire GTOINT-calculation: 8.8 MB

Diagonalization of the overlap matrix:
Smallest eigenvalue                        ... 1.414e-02
Time for diagonalization                   ...    0.000 sec
Threshold for overlap eigenvalues          ... 1.000e-08
Number of eigenvalues below threshold      ... 0
Time for construction of square roots      ...    0.000 sec
Total time needed                          ...    0.000 sec

-------------------
DFT GRID GENERATION
-------------------

General Integration Accuracy     IntAcc      ... 4.388
Radial Grid Type                 RadialGrid  ... OptM3 with GC (2021)
Angular Grid (max. ang.)         AngularGrid ... 4 (Lebedev-302)
Angular grid pruning method      GridPruning ... 4 (adaptive)
Weight generation scheme         WeightScheme... Becke
Basis function cutoff            BFCut       ... 1.0000e-11
Integration weight cutoff        WCut        ... 1.0000e-14
Angular grids for H and He will be reduced by one unit
Partially contracted basis set               ... off
Rotationally invariant grid construction     ... off

Total number of grid points                  ...    19251
Total number of batches                      ...      304
Average number of points per batch           ...       63
Average number of grid points per atom       ...     3850
Time for grid setup =    0.049 sec

--------------------
COSX GRID GENERATION
--------------------

GRIDX 1
-------
General Integration Accuracy     IntAcc      ... 3.816
Radial Grid Type                 RadialGrid  ... OptM3 with GC (2021)
Angular Grid (max. ang.)         AngularGrid ... 1 (Lebedev-50)
Angular grid pruning method      GridPruning ... 4 (adaptive)
Weight generation scheme         WeightScheme... Becke
Basis function cutoff            BFCut       ... 1.0000e-11
Integration weight cutoff        WCut        ... 1.0000e-14
Angular grids for H and He will be reduced by one unit
Partially contracted basis set               ... on
Rotationally invariant grid construction     ... off

Total number of grid points                  ...     2524
Total number of batches                      ...       42
Average number of points per batch           ...       60
Average number of grid points per atom       ...      505
UseSFitting                                  ... on

GRIDX 2
-------
General Integration Accuracy     IntAcc      ... 4.020
Radial Grid Type                 RadialGrid  ... OptM3 with GC (2021)
Angular Grid (max. ang.)         AngularGrid ... 2 (Lebedev-110)
Angular grid pruning method      GridPruning ... 4 (adaptive)
Weight generation scheme         WeightScheme... Becke
Basis function cutoff            BFCut       ... 1.0000e-11
Integration weight cutoff        WCut        ... 1.0000e-14
Angular grids for H and He will be reduced by one unit
Partially contracted basis set               ... on
Rotationally invariant grid construction     ... off

Total number of grid points                  ...     5078
Total number of batches                      ...       80
Average number of points per batch           ...       63
Average number of grid points per atom       ...     1016
UseSFitting                                  ... on

GRIDX 3
-------
General Integration Accuracy     IntAcc      ... 4.338
Radial Grid Type                 RadialGrid  ... OptM3 with GC (2021)
Angular Grid (max. ang.)         AngularGrid ... 3 (Lebedev-194)
Angular grid pruning method      GridPruning ... 4 (adaptive)
Weight generation scheme         WeightScheme... Becke
Basis function cutoff            BFCut       ... 1.0000e-11
Integration weight cutoff        WCut        ... 1.0000e-14
Angular grids for H and He will be reduced by one unit
Partially contracted basis set               ... on
Rotationally invariant grid construction     ... off

Total number of grid points                  ...    11159
Total number of batches                      ...      177
Average number of points per batch           ...       63
Average number of grid points per atom       ...     2232
UseSFitting                                  ... on

Time for X-Grid setup             =    0.037 sec

--------------
SCF ITERATIONS
--------------
ITER       Energy         Delta-E        Max-DP      RMS-DP      [F,P]     Damp
               ***  Starting incremental Fock matrix formation  ***
  0    -40.4498878563   0.000000000000 0.00467052  0.00030039  0.0094153 0.7000
                      *** Initiating the SOSCF procedure ***
                      *** Re-Reading the Fockian *** 
                      *** Removing any level shift *** 
ITER      Energy       Delta-E        Grad      Rot      Max-DP    RMS-DP
  1    -40.45000286  -0.0001150051  0.001409  0.001409  0.012284  0.000823
               *** Restarting incremental Fock matrix formation ***
  2    -40.45024227  -0.0002394102  0.002112  0.001542  0.006088  0.000301
  3    -40.45024921  -0.0000069381  0.001141  0.000701  0.001918  0.000126
  4    -40.45025994  -0.0000107265  0.000039  0.000031  0.000107  0.000005
                 **** Energy Check signals convergence ****
              ***Rediagonalizing the Fockian in SOSCF/NRSCF***

               *****************************************************
               *                     SUCCESS                       *
               *           SCF CONVERGED AFTER   5 CYCLES          *
               *****************************************************

Old exchange energy                            =     -3.545095712 Eh
New exchange energy                            =     -3.545114937 Eh
Exchange energy change after final integration =     -0.000019224 Eh
Total energy after final integration           =    -40.450279170 Eh
Final COS-X integration done in                =     0.089 sec
Total Energy       :          -40.45027917 Eh           -1100.70806 eV
  Last Energy change         ...   -9.4529e-09  Tolerance :   1.0000e-08
  Last MAX-Density change    ...    1.3323e-15  Tolerance :   1.0000e-07
             **** THE GBW FILE WAS UPDATED (calc.gbw) ****
             **** DENSITY calc.scfp WAS UPDATED ****
             **** ENERGY FILE WAS UPDATED (calc.en.tmp) ****
             **** THE GBW FILE WAS UPDATED (calc.gbw) ****
             **** DENSITY calc.scfp WAS UPDATED ****
Total SCF time: 0 days 0 hours 0 min 0 sec 

Maximum memory used throughout the entire SCF-calculation: 44.0 MB

-------------------------   --------------------
FINAL SINGLE POINT ENERGY       -40.450279169930
-------------------------   --------------------

------------------------------------------------------------------------------
                         ORCA SCF GRADIENT CALCULATION
------------------------------------------------------------------------------

 ... reading COSX grid (gridx3)
Gradient of the Kohn-Sham DFT energy:
Kohn-Sham wavefunction type      ... RKS
Hartree-Fock exchange scaling    ...    0.540
Number of operators              ...    1
Number of atoms                  ...    5
Basis set dimensions             ...   34
Integral neglect threshold       ... 2.5e-11
Integral primitive cutoff        ... 2.5e-12
SHARK Integral package           ... ON

Nuc. rep. gradient       (SHARK) ... done (  0.0 sec)
HCore & Overlap gradient (SHARK) ... done (  0.0 sec)
RI-J gradient            (SHARK) ... done (  0.0 sec)
COSX-gradient                    ... done (  0.1 sec)
Exchange-correlation gradient    ... done

------------------
CARTESIAN GRADIENT
------------------

   1   C   :   -0.000101223    0.000112225    0.000462467
   2   H   :    0.000007886    0.000281910   -0.000101402
   3   H   :   -0.000128068   -0.000233342   -0.000379244
   4   H   :   -0.000107953   -0.000199719    0.000124566
   5   H   :    0.000405158   -0.000037178   -0.000102190

Difference to translation invariance:
           :    0.0000758006   -0.0000761040    0.0000041976

Difference to rotation invariance:
           :    0.0000322912   -0.0000322813   -0.0009228298

Norm of the cartesian gradient     ...    0.0008855768
RMS gradient                       ...    0.0002286550
MAX gradient                       ...    0.0004624673

-------
TIMINGS
-------

Total SCF gradient time            ...        0.370 sec

One electron gradient       ....       0.003 sec  (  0.7%)
RI-J Coulomb gradient       ....       0.027 sec  (  7.4%)
COSX gradient               ....       0.123 sec  ( 33.2%)
XC gradient                 ....       0.147 sec  ( 39.6%)

Maximum memory used throughout the entire SCFGRAD-calculation: 33.6 MB
------------------------------------------------------------------------------
                         ORCA GEOMETRY RELAXATION STEP
------------------------------------------------------------------------------

Reading the OPT-File                    .... done
Getting information on internals        .... done
Copying old internal coords+grads       .... done
Making the new internal coordinates     .... (new redundants).... done
Validating the new internal coordinates .... (new redundants).... done
Calculating the B-matrix                .... done
Calculating the G,G- and P matrices     .... done
Transforming gradient to internals      .... done
Projecting the internal gradient        .... done
Number of atoms                         ....   5
Number of internal coordinates          ....  10
Current Energy                          ....   -40.450279170 Eh
Current gradient norm                   ....     0.000885577 Eh/bohr
Maximum allowed component of the step   ....  0.300
Current trust radius                    ....  0.300
Updating the Hessian (BFGS)             .... done
Forming the augmented Hessian           .... done
Diagonalizing the augmented Hessian     .... done
Last element of RFO vector              ....  0.999997856
Lowest eigenvalues of augmented Hessian:
 -0.000001559  0.296801386  0.296954635  0.297440041  0.297847698
Length of the computed step             ....  0.002070570
The final length of the internal step   ....  0.002070570
Converting the step to cartesian space:
 Initial RMS(Int)=    0.0006547716
Transforming coordinates:
 Iter   0:  RMS(Cart)=    0.0005063831 RMS(Int)=    0.0006547725
 Iter   1:  RMS(Cart)=    0.0000001144 RMS(Int)=    0.0000001532
 Iter   2:  RMS(Cart)=    0.0000000001 RMS(Int)=    0.0000000001
done
Storing new coordinates                 .... done

                                .--------------------.
          ----------------------|Geometry convergence|-------------------------
          Item                value                   Tolerance       Converged
          ---------------------------------------------------------------------
          Energy change      -0.0018031261            0.0000050000      NO
          RMS gradient        0.0002394098            0.0001000000      NO
          MAX gradient        0.0004608914            0.0003000000      NO
          RMS step            0.0006547716            0.0020000000      YES
          MAX step            0.0011962264            0.0040000000      YES
          ........................................................
          Max(Bonds)      0.0006      Max(Angles)    0.04
          Max(Dihed)        0.00      Max(Improp)    0.00
          ---------------------------------------------------------------------

       The step convergence is overachieved with 
       reasonable convergence on the gradient
       Convergence will therefore be signaled now


                    ***********************HURRAY********************
                    ***        THE OPTIMIZATION HAS CONVERGED     ***
                    *************************************************


    ---------------------------------------------------------------------------
                         Redundant Internal Coordinates

                          --- Optimized Parameters ---  
                            (Angstroem and degrees)

        Definition                    OldVal   dE/dq     Step     FinalVal
    ----------------------------------------------------------------------------
     1. B(H   1,C   0)                1.0960 -0.000283  0.0004    1.0964   
     2. B(H   2,C   0)                1.0957 -0.000461  0.0006    1.0963   
     3. B(H   3,C   0)                1.0962 -0.000229  0.0003    1.0965   
     4. B(H   4,C   0)                1.0959 -0.000390  0.0005    1.0964   
     5. A(H   1,C   0,H   3)          109.40 -0.000187    0.04    109.44   
     6. A(H   2,C   0,H   3)          109.53  0.000076   -0.02    109.52   
     7. A(H   1,C   0,H   4)          109.47  0.000043   -0.01    109.46   
     8. A(H   2,C   0,H   4)          109.51  0.000130   -0.03    109.49   
     9. A(H   3,C   0,H   4)          109.39 -0.000117    0.02    109.41   
    10. A(H   1,C   0,H   2)          109.52  0.000055   -0.01    109.51   
    ----------------------------------------------------------------------------
                 *******************************************************
                 *** FINAL ENERGY EVALUATION AT THE STATIONARY POINT ***
                 ***               (AFTER    2 CYCLES)               ***
                 *******************************************************
---------------------------------
CARTESIAN COORDINATES (ANGSTROEM)
---------------------------------
  C      4.292005    3.658876   -0.001444
  H      4.657259    2.625139   -0.000920
  H      4.658208    4.177092    0.892599
  H      4.656031    4.174013   -0.898314
  H      3.195597    3.658879   -0.000921

----------------------------
CARTESIAN COORDINATES (A.U.)
----------------------------
  NO LB      ZA    FRAG     MASS         X           Y           Z
   0 C     6.0000    0    12.011    8.110714    6.914274   -0.002729
   1 H     1.0000    0     1.008    8.800943    4.960794   -0.001738
   2 H     1.0000    0     1.008    8.802738    7.893561    1.686768
   3 H     1.0000    0     1.008    8.798624    7.887742   -1.697568
   4 H     1.0000    0     1.008    6.038803    6.914279   -0.001740

--------------------------------
INTERNAL COORDINATES (ANGSTROEM)
--------------------------------
 C      0   0   0     0.000000000000     0.00000000     0.00000000
 H      1   0   0     1.096368274688     0.00000000     0.00000000
 H      1   2   0     1.096342054313   109.51211011     0.00000000
 H      1   2   3     1.096474918340   109.43639361   120.05804122
 H      1   2   3     1.096408288948   109.46010624   239.95949546

---------------------------
INTERNAL COORDINATES (A.U.)
---------------------------
 C      0   0   0     0.000000000000     0.00000000     0.00000000
 H      1   0   0     2.071835781081     0.00000000     0.00000000
 H      1   2   0     2.071786231752   109.51211011     0.00000000
 H      1   2   3     2.072037308375   109.43639361   120.05804122
 H      1   2   3     2.071911397073   109.46010624   239.95949546

---------------------
BASIS SET INFORMATION
---------------------
There are 2 groups of distinct atoms

 Group   1 Type C   : 7s4p1d contracted to 3s2p1d pattern {511/31/1}
 Group   2 Type H   : 4s1p contracted to 2s1p pattern {31/1}

Atom   0C    basis set group =>   1
Atom   1H    basis set group =>   2
Atom   2H    basis set group =>   2
Atom   3H    basis set group =>   2
Atom   4H    basis set group =>   2
---------------------------------
AUXILIARY/J BASIS SET INFORMATION
---------------------------------
There are 2 groups of distinct atoms

 Group   1 Type C   : 12s5p4d2f1g contracted to 6s4p3d1f1g pattern {711111/2111/211/2/1}
 Group   2 Type H   : 5s2p1d contracted to 3s1p1d pattern {311/2/1}

Atom   0C    basis set group =>   1
Atom   1H    basis set group =>   2
Atom   2H    basis set group =>   2
Atom   3H    basis set group =>   2
Atom   4H    basis set group =>   2
------------------------------------------------------------------------------
                           ORCA GTO INTEGRAL CALCULATION
                           -- RI-GTO INTEGRALS CHOSEN --
------------------------------------------------------------------------------
------------------------------------------------------------------------------
                   ___                                                        
                  /   \      - P O W E R E D   B Y -                         
                 /     \                                                     
                 |  |  |   _    _      __       _____    __    __             
                 |  |  |  | |  | |    /  \     |  _  \  |  |  /  |          
                  \  \/   | |  | |   /    \    | | | |  |  | /  /          
                 / \  \   | |__| |  /  /\  \   | |_| |  |  |/  /          
                |  |  |   |  __  | /  /__\  \  |    /   |      \           
                |  |  |   | |  | | |   __   |  |    \   |  |\   \          
                \     /   | |  | | |  |  |  |  | |\  \  |  | \   \       
                 \___/    |_|  |_| |__|  |__|  |_| \__\ |__|  \__/        
                                                                              
                      - O R C A' S   B I G   F R I E N D -                    
                                      &                                       
                       - I N T E G R A L  F E E D E R -                       
                                                                              
 v1 FN, 2020, v2 2021                                                         
------------------------------------------------------------------------------


Reading SHARK input file calc.SHARKINP.tmp ... ok
----------------------
SHARK INTEGRAL PACKAGE
----------------------

Number of atoms                             ...      5
Number of basis functions                   ...     34
Number of shells                            ...     18
Maximum angular momentum                    ...      2
Integral batch strategy                     ... SHARK/LIBINT Hybrid
RI-J (if used) integral strategy            ... SPLIT-RIJ (Revised 2003 algorithm where possible)
Printlevel                                  ...      1
Contraction scheme used                     ... SEGMENTED contraction
Coulomb Range Separation                    ... NOT USED
Exchange Range Separation                   ... NOT USED
Finite Nucleus Model                        ... NOT USED
Auxiliary Coulomb fitting basis             ... AVAILABLE
   # of basis functions in Aux-J            ...     93
   # of shells in Aux-J                     ...     35
   Maximum angular momentum in Aux-J        ...      4
Auxiliary J/K fitting basis                 ... NOT available
Auxiliary Correlation fitting basis         ... NOT available
Auxiliary 'external' fitting basis          ... NOT available
Integral threshold                          ...     2.500000e-11
Primitive cut-off                           ...     2.500000e-12
Primitive pair pre-selection threshold      ...     2.500000e-12

Calculating pre-screening integrals         ... done (  0.0 sec) Dimension = 18
Organizing shell pair data                  ... done (  0.0 sec)
Shell pair information
Total number of shell pairs                 ...       171
Shell pairs after pre-screening             ...       171
Total number of primitive shell pairs       ...       553
Primitive shell pairs kept                  ...       535
          la=0 lb=0:     66 shell pairs
          la=1 lb=0:     66 shell pairs
          la=1 lb=1:     21 shell pairs
          la=2 lb=0:     11 shell pairs
          la=2 lb=1:      6 shell pairs
          la=2 lb=2:      1 shell pairs

Calculating one electron integrals          ... done (  0.0 sec)
Calculating RI/J V-Matrix + Cholesky decomp.... done (  0.0 sec)
Calculating Nuclear repulsion               ... done (  0.0 sec) ENN=     13.356983006854 Eh

SHARK setup successfully completed in   0.0 seconds

Maximum memory used throughout the entire GTOINT-calculation: 8.8 MB
-------------------------------------------------------------------------------
                                 ORCA SCF
-------------------------------------------------------------------------------

------------
SCF SETTINGS
------------
Hamiltonian:
 Density Functional     Method          .... DFT(GTOs)
 Exchange Functional    Exchange        .... M062X
 Correlation Functional Correlation     .... M062X
 Gradients option       PostSCFGGA      .... off
 Hybrid DFT is turned on
   Fraction HF Exchange ScalHFX         ....  0.540000
   Scaling of DF-GGA-X  ScalDFX         ....  0.460000
   Scaling of DF-GGA-C  ScalDFC         ....  1.000000
   Scaling of DF-LDA-C  ScalLDAC        ....  1.000000
   Perturbative correction              ....  0.000000
   Density functional embedding theory  .... OFF
 RI-approximation to the Coulomb term is turned on
   Number of AuxJ basis functions       .... 93
   RIJ-COSX (HFX calculated with COS-X)).... on


General Settings:
 Integral files         IntName         .... calc
 Hartree-Fock type      HFTyp           .... RHF
 Total Charge           Charge          ....    0
 Multiplicity           Mult            ....    1
 Number of Electrons    NEL             ....   10
 Basis Dimension        Dim             ....   34
 Nuclear Repulsion      ENuc            ....     13.3569830069 Eh

Convergence Acceleration:
 DIIS                   CNVDIIS         .... on
   Start iteration      DIISMaxIt       ....    12
   Startup error        DIISStart       ....  0.200000
   # of expansion vecs  DIISMaxEq       ....     5
   Bias factor          DIISBfac        ....   1.050
   Max. coefficient     DIISMaxC        ....  10.000
 Trust-Rad. Augm. Hess. CNVTRAH         .... auto
   Auto Start mean grad. ratio tolernc. ....  1.125000
   Auto Start start iteration           ....     1
   Auto Start num. interpolation iter.  ....    10
   Max. Number of Micro iterations      ....    16
   Max. Number of Macro iterations      .... Maxiter - #DIIS iter
   Number of Davidson start vectors     ....     2
   Converg. threshold I  (grad. norm)   ....   1.000e-05
   Converg. threshold II (energy diff.) ....   1.000e-08
   Grad. Scal. Fac. for Micro threshold ....   0.100
   Minimum threshold for Micro iter.    ....   0.010
   NR start threshold (gradient norm)   ....   0.001
   Initial trust radius                 ....   0.400
   Minimum AH scaling param. (alpha)    ....   1.000
   Maximum AH scaling param. (alpha)    .... 1000.000
   Orbital update algorithm             .... Taylor
   White noise on init. David. guess    .... on
   Maximum white noise                  ....   0.010
   Quad. conv. algorithm                .... NR
 SOSCF                  CNVSOSCF        .... on
   Start iteration      SOSCFMaxIt      ....   150
   Startup grad/error   SOSCFStart      ....  0.003300
 Level Shifting         CNVShift        .... on
   Level shift para.    LevelShift      ....    0.2500
   Turn off err/grad.   ShiftErr        ....    0.0010
 Zerner damping         CNVZerner       .... off
 Static damping         CNVDamp         .... on
   Fraction old density DampFac         ....    0.7000
   Max. Damping (<1)    DampMax         ....    0.9800
   Min. Damping (>=0)   DampMin         ....    0.0000
   Turn off err/grad.   DampErr         ....    0.1000
 Fernandez-Rico         CNVRico         .... off

SCF Procedure:
 Maximum # iterations   MaxIter         ....   125
 SCF integral mode      SCFMode         .... Direct
   Integral package                     .... SHARK and LIBINT hybrid scheme
 Reset frequency        DirectResetFreq ....    20
 Integral Threshold     Thresh          ....  2.500e-11 Eh
 Primitive CutOff       TCut            ....  2.500e-12 Eh

Convergence Tolerance:
 Convergence Check Mode ConvCheckMode   .... Total+1el-Energy
 Convergence forced     ConvForced      .... 0
 Energy Change          TolE            ....  1.000e-08 Eh
 1-El. energy change                    ....  1.000e-05 Eh
 Orbital Gradient       TolG            ....  1.000e-05
 Orbital Rotation angle TolX            ....  1.000e-05
 DIIS Error             TolErr          ....  5.000e-07


Diagonalization of the overlap matrix:
Smallest eigenvalue                        ... 1.416e-02
Time for diagonalization                   ...    0.000 sec
Threshold for overlap eigenvalues          ... 1.000e-08
Number of eigenvalues below threshold      ... 0
Time for construction of square roots      ...    0.000 sec
Total time needed                          ...    0.001 sec

---------------------
INITIAL GUESS: MOREAD
---------------------
Guess MOs are being read from file: calc.gbw
Input Geometry matches current geometry (good)
Input basis set matches current basis set (good)
MOs were renormalized
MOs were reorthogonalized (Cholesky)
                      ------------------
                      INITIAL GUESS DONE (   0.0 sec)
                      ------------------
-------------------
DFT GRID GENERATION
-------------------

General Integration Accuracy     IntAcc      ... 4.388
Radial Grid Type                 RadialGrid  ... OptM3 with GC (2021)
Angular Grid (max. ang.)         AngularGrid ... 4 (Lebedev-302)
Angular grid pruning method      GridPruning ... 4 (adaptive)
Weight generation scheme         WeightScheme... Becke
Basis function cutoff            BFCut       ... 1.0000e-11
Integration weight cutoff        WCut        ... 1.0000e-14
Angular grids for H and He will be reduced by one unit
Partially contracted basis set               ... off
Rotationally invariant grid construction     ... off

Total number of grid points                  ...    19251
Total number of batches                      ...      303
Average number of points per batch           ...       63
Average number of grid points per atom       ...     3850
Time for grid setup =    0.052 sec

--------------------
COSX GRID GENERATION
--------------------

GRIDX 1
-------
General Integration Accuracy     IntAcc      ... 3.816
Radial Grid Type                 RadialGrid  ... OptM3 with GC (2021)
Angular Grid (max. ang.)         AngularGrid ... 1 (Lebedev-50)
Angular grid pruning method      GridPruning ... 4 (adaptive)
Weight generation scheme         WeightScheme... Becke
Basis function cutoff            BFCut       ... 1.0000e-11
Integration weight cutoff        WCut        ... 1.0000e-14
Angular grids for H and He will be reduced by one unit
Partially contracted basis set               ... on
Rotationally invariant grid construction     ... off

Total number of grid points                  ...     2524
Total number of batches                      ...       42
Average number of points per batch           ...       60
Average number of grid points per atom       ...      505
UseSFitting                                  ... on

GRIDX 2
-------
General Integration Accuracy     IntAcc      ... 4.020
Radial Grid Type                 RadialGrid  ... OptM3 with GC (2021)
Angular Grid (max. ang.)         AngularGrid ... 2 (Lebedev-110)
Angular grid pruning method      GridPruning ... 4 (adaptive)
Weight generation scheme         WeightScheme... Becke
Basis function cutoff            BFCut       ... 1.0000e-11
Integration weight cutoff        WCut        ... 1.0000e-14
Angular grids for H and He will be reduced by one unit
Partially contracted basis set               ... on
Rotationally invariant grid construction     ... off

Total number of grid points                  ...     5078
Total number of batches                      ...       80
Average number of points per batch           ...       63
Average number of grid points per atom       ...     1016
UseSFitting                                  ... on

GRIDX 3
-------
General Integration Accuracy     IntAcc      ... 4.338
Radial Grid Type                 RadialGrid  ... OptM3 with GC (2021)
Angular Grid (max. ang.)         AngularGrid ... 3 (Lebedev-194)
Angular grid pruning method      GridPruning ... 4 (adaptive)
Weight generation scheme         WeightScheme... Becke
Basis function cutoff            BFCut       ... 1.0000e-11
Integration weight cutoff        WCut        ... 1.0000e-14
Angular grids for H and He will be reduced by one unit
Partially contracted basis set               ... on
Rotationally invariant grid construction     ... off

Total number of grid points                  ...    11159
Total number of batches                      ...      177
Average number of points per batch           ...       63
Average number of grid points per atom       ...     2232
UseSFitting                                  ... on

Time for X-Grid setup             =    0.039 sec

--------------
SCF ITERATIONS
--------------
ITER       Energy         Delta-E        Max-DP      RMS-DP      [F,P]     Damp
               ***  Starting incremental Fock matrix formation  ***
                      *** Initiating the SOSCF procedure ***
                      *** Re-Reading the Fockian *** 
                      *** Removing any level shift *** 
ITER      Energy       Delta-E        Grad      Rot      Max-DP    RMS-DP
  0    -40.45026101 -40.4502610069  0.000169  0.000169  0.000282  0.000019
               *** Restarting incremental Fock matrix formation ***
  1    -40.45026119  -0.0000001781  0.000050  0.000034  0.000137  0.000007
  2    -40.45026119  -0.0000000087  0.000019  0.000015  0.000033  0.000002
  3    -40.45026120  -0.0000000072  0.000003  0.000002  0.000005  0.000000
                 **** Energy Check signals convergence ****
              ***Rediagonalizing the Fockian in SOSCF/NRSCF***

               *****************************************************
               *                     SUCCESS                       *
               *           SCF CONVERGED AFTER   4 CYCLES          *
               *****************************************************

Old exchange energy                            =     -3.544718834 Eh
New exchange energy                            =     -3.544737800 Eh
Exchange energy change after final integration =     -0.000018966 Eh
Total energy after final integration           =    -40.450280166 Eh
Final COS-X integration done in                =     0.095 sec

----------------
TOTAL SCF ENERGY
----------------

Total Energy       :          -40.45028017 Eh           -1100.70808 eV

Components:
Nuclear Repulsion  :           13.35698301 Eh             363.46199 eV
Electronic Energy  :          -53.80726317 Eh           -1464.17007 eV
One Electron Energy:          -79.59958732 Eh           -2166.01489 eV
Two Electron Energy:           25.79232415 Eh             701.84482 eV
Max COSX asymmetry :            0.00000109 Eh               0.00003 eV

Virial components:
Potential Energy   :          -80.30421085 Eh           -2185.18867 eV
Kinetic Energy     :           39.85393069 Eh            1084.48059 eV
Virial Ratio       :            2.01496338


DFT components:
N(Alpha)           :        4.999999819110 electrons
N(Beta)            :        4.999999819110 electrons
N(Total)           :        9.999999638220 electrons
E(XC)              :       -3.303304310725 Eh       
DFET-embed. en.    :        0.000000000000 Eh       

---------------
SCF CONVERGENCE
---------------

  Last Energy change         ...    9.0962e-10  Tolerance :   1.0000e-08
  Last MAX-Density change    ...    8.8818e-16  Tolerance :   1.0000e-07
  Last RMS-Density change    ...    3.8533e-17  Tolerance :   5.0000e-09
  Last Orbital Gradient      ...    1.2459e-07  Tolerance :   1.0000e-05
  Last Orbital Rotation      ...    2.3563e-07  Tolerance :   1.0000e-05

             **** THE GBW FILE WAS UPDATED (calc.gbw) ****
             **** DENSITY calc.scfp WAS UPDATED ****
             **** ENERGY FILE WAS UPDATED (calc.en.tmp) ****
             **** THE GBW FILE WAS UPDATED (calc.gbw) ****
             **** DENSITY calc.scfp WAS UPDATED ****
----------------
ORBITAL ENERGIES
----------------

  NO   OCC          E(Eh)            E(eV) 
   0   2.0000     -10.536564      -286.7145 
   1   2.0000      -0.771829       -21.0025 
   2   2.0000      -0.451601       -12.2887 
   3   2.0000      -0.451472       -12.2852 
   4   2.0000      -0.451362       -12.2822 
   5   0.0000       0.116388         3.1671 
   6   0.0000       0.187932         5.1139 
   7   0.0000       0.187956         5.1145 
   8   0.0000       0.187979         5.1152 
   9   0.0000       0.466287        12.6883 
  10   0.0000       0.466445        12.6926 
  11   0.0000       0.466473        12.6934 
  12   0.0000       0.712324        19.3833 
  13   0.0000       0.743826        20.2405 
  14   0.0000       0.743927        20.2433 
  15   0.0000       0.743940        20.2436 
  16   0.0000       0.827256        22.5108 
  17   0.0000       1.158226        31.5169 
  18   0.0000       1.158367        31.5208 
  19   0.0000       1.584126        43.1063 
  20   0.0000       1.584289        43.1107 
  21   0.0000       1.584593        43.1190 
  22   0.0000       1.811253        49.2867 
  23   0.0000       1.811546        49.2947 
  24   0.0000       1.811622        49.2967 
  25   0.0000       2.155216        58.6464 
  26   0.0000       2.155498        58.6541 
  27   0.0000       2.156337        58.6769 
  28   0.0000       2.545930        69.2783 
  29   0.0000       2.546160        69.2845 
  30   0.0000       2.600504        70.7633 
  31   0.0000       2.923121        79.5422 
  32   0.0000       2.923726        79.5586 
  33   0.0000       2.923881        79.5629 

                    ********************************
                    * MULLIKEN POPULATION ANALYSIS *
                    ********************************

-----------------------
MULLIKEN ATOMIC CHARGES
-----------------------
   0 C :   -0.213400
   1 H :    0.053572
   2 H :    0.053390
   3 H :    0.053249
   4 H :    0.053189
Sum of atomic charges:    0.0000000

--------------------------------
MULLIKEN REDUCED ORBITAL CHARGES
--------------------------------
  0 C s       :     3.092843  s :     3.092843
      pz      :     1.033636  p :     3.101206
      px      :     1.034047
      py      :     1.033523
      dz2     :     0.004843  d :     0.019351
      dxz     :     0.002145
      dyz     :     0.004298
      dx2y2   :     0.005923
      dxy     :     0.002143
  1 H s       :     0.923675  s :     0.923675
      pz      :     0.004261  p :     0.022754
      px      :     0.005376
      py      :     0.013117
  2 H s       :     0.923850  s :     0.923850
      pz      :     0.010890  p :     0.022761
      px      :     0.005381
      py      :     0.006490
  3 H s       :     0.923991  s :     0.923991
      pz      :     0.010925  p :     0.022759
      px      :     0.005370
      py      :     0.006465
  4 H s       :     0.924044  s :     0.924044
      pz      :     0.004261  p :     0.022767
      px      :     0.014243
      py      :     0.004263


                     *******************************
                     * LOEWDIN POPULATION ANALYSIS *
                     *******************************

----------------------
LOEWDIN ATOMIC CHARGES
----------------------
   0 C :   -0.124269
   1 H :    0.031073
   2 H :    0.031054
   3 H :    0.031061
   4 H :    0.031081

-------------------------------
LOEWDIN REDUCED ORBITAL CHARGES
-------------------------------
  0 C s       :     2.844958  s :     2.844958
      pz      :     1.075404  p :     3.226450
      px      :     1.075622
      py      :     1.075425
      dz2     :     0.013232  d :     0.052861
      dxz     :     0.005863
      dyz     :     0.011744
      dx2y2   :     0.016160
      dxy     :     0.005863
  1 H s       :     0.905031  s :     0.905031
      pz      :     0.012172  p :     0.063896
      px      :     0.015222
      py      :     0.036502
  2 H s       :     0.905040  s :     0.905040
      pz      :     0.030378  p :     0.063906
      px      :     0.015234
      py      :     0.018293
  3 H s       :     0.905055  s :     0.905055
      pz      :     0.030474  p :     0.063884
      px      :     0.015197
      py      :     0.018214
  4 H s       :     0.905028  s :     0.905028
      pz      :     0.012172  p :     0.063890
      px      :     0.039546
      py      :     0.012173


                      *****************************
                      * MAYER POPULATION ANALYSIS *
                      *****************************

  NA   - Mulliken gross atomic population
  ZA   - Total nuclear charge
  QA   - Mulliken gross atomic charge
  VA   - Mayer's total valence
  BVA  - Mayer's bonded valence
  FA   - Mayer's free valence

  ATOM       NA         ZA         QA         VA         BVA        FA
  0 C      6.2134     6.0000    -0.2134     3.9857     3.9857     0.0000
  1 H      0.9464     1.0000     0.0536     0.9861     0.9861     0.0000
  2 H      0.9466     1.0000     0.0534     0.9862     0.9862     0.0000
  3 H      0.9468     1.0000     0.0532     0.9862     0.9862     0.0000
  4 H      0.9468     1.0000     0.0532     0.9864     0.9864     0.0000

  Mayer bond orders larger than 0.100000
B(  0-C ,  1-H ) :   0.9964 B(  0-C ,  2-H ) :   0.9964 B(  0-C ,  3-H ) :   0.9964 
B(  0-C ,  4-H ) :   0.9965 

-------
TIMINGS
-------

Total SCF time: 0 days 0 hours 0 min 0 sec 

Total time                  ....       0.790 sec
Sum of individual times     ....       0.732 sec  ( 92.6%)

Fock matrix formation       ....       0.639 sec  ( 81.0%)
  Split-RI-J                ....       0.064 sec  ( 10.1% of F)
  Chain of spheres X        ....       0.331 sec  ( 51.8% of F)
  XC integration            ....       0.254 sec  ( 39.7% of F)
    Basis function eval.    ....       0.051 sec  ( 20.1% of XC)
    Density eval.           ....       0.059 sec  ( 23.5% of XC)
    XC-Functional eval.     ....       0.064 sec  ( 25.3% of XC)
    XC-Potential eval.      ....       0.060 sec  ( 23.6% of XC)
Diagonalization             ....       0.000 sec  (  0.0%)
Density matrix formation    ....       0.000 sec  (  0.0%)
Population analysis         ....       0.001 sec  (  0.1%)
Initial guess               ....       0.000 sec  (  0.0%)
Orbital Transformation      ....       0.000 sec  (  0.0%)
Orbital Orthonormalization  ....       0.000 sec  (  0.0%)
DIIS solution               ....       0.000 sec  (  0.0%)
SOSCF solution              ....       0.000 sec  (  0.0%)
Grid generation             ....       0.091 sec  ( 11.5%)

Maximum memory used throughout the entire SCF-calculation: 44.0 MB

-------------------------   --------------------
FINAL SINGLE POINT ENERGY       -40.450280166288
-------------------------   --------------------

                                *** OPTIMIZATION RUN DONE ***

                            ***************************************
                            *     ORCA property calculations      *
                            ***************************************

                                    ---------------------
                                    Active property flags
                                    ---------------------
   (+) Dipole Moment


------------------------------------------------------------------------------
                       ORCA ELECTRIC PROPERTIES CALCULATION
------------------------------------------------------------------------------

Dipole Moment Calculation                       ... on
Quadrupole Moment Calculation                   ... off
Polarizability Calculation                      ... off
GBWName                                         ... calc.gbw
Electron density                                ... calc.scfp
The origin for moment calculation is the CENTER OF MASS  = ( 8.110604,  6.914229 -0.002940)

-------------
DIPOLE MOMENT
-------------
                                X             Y             Z
Electronic contribution:      0.00031       0.00037       0.00103
Nuclear contribution   :     -0.00065      -0.00027      -0.00125
                        -----------------------------------------
Total Dipole Moment    :     -0.00034       0.00010      -0.00022
                        -----------------------------------------
Magnitude (a.u.)       :      0.00041
Magnitude (Debye)      :      0.00105



--------------------
Rotational spectrum 
--------------------
 
Rotational constants in cm-1:     5.219307     5.216815     5.215242 
Rotational constants in MHz : 156470.893580 156396.180917 156349.006841 

 Dipole components along the rotational axes: 
x,y,z [a.u.] :    -0.000219     0.000334     0.000105 
x,y,z [Debye]:    -0.000556     0.000849     0.000268 

 

Timings for individual modules:

Sum of individual times         ...        3.857 sec (=   0.064 min)
GTO integral calculation        ...        0.165 sec (=   0.003 min)   4.3 %
SCF iterations                  ...        2.890 sec (=   0.048 min)  74.9 %
SCF Gradient evaluation         ...        0.764 sec (=   0.013 min)  19.8 %
Geometry relaxation             ...        0.038 sec (=   0.001 min)   1.0 %
                             ****ORCA TERMINATED NORMALLY****
TOTAL RUN TIME: 0 days 0 hours 0 minutes 3 seconds 974 msec
