
                                 *****************
                                 * O   R   C   A *
                                 *****************

                                            #,                                       
                                            ###                                      
                                            ####                                     
                                            #####                                    
                                            ######                                   
                                           ########,                                 
                                     ,,################,,,,,                         
                               ,,#################################,,                 
                          ,,##########################################,,             
                       ,#########################################, ''#####,          
                    ,#############################################,,   '####,        
                  ,##################################################,,,,####,       
                ,###########''''           ''''###############################       
              ,#####''   ,,,,##########,,,,          '''####'''          '####       
            ,##' ,,,,###########################,,,                        '##       
           ' ,,###''''                  '''############,,,                           
         ,,##''                                '''############,,,,        ,,,,,,###''
      ,#''                                            '''#######################'''  
     '                                                          ''''####''''         
             ,#######,   #######,   ,#######,      ##                                
            ,#'     '#,  ##    ##  ,#'     '#,    #''#        ######   ,####,        
            ##       ##  ##   ,#'  ##            #'  '#       #        #'  '#        
            ##       ##  #######   ##           ,######,      #####,   #    #        
            '#,     ,#'  ##    ##  '#,     ,#' ,#      #,         ##   #,  ,#        
             '#######'   ##     ##  '#######'  #'      '#     #####' # '####'        



                  #######################################################
                  #                        -***-                        #
                  #          Department of theory and spectroscopy      #
                  #    Directorship and core code : Frank Neese         #
                  #        Max Planck Institute fuer Kohlenforschung    #
                  #                Kaiser Wilhelm Platz 1               #
                  #                 D-45470 Muelheim/Ruhr               #
                  #                      Germany                        #
                  #                                                     #
                  #                  All rights reserved                #
                  #                        -***-                        #
                  #######################################################


                         Program Version 5.0.3 -  RELEASE  -


 With contributions from (in alphabetic order):
   Daniel Aravena         : Magnetic Suceptibility
   Michael Atanasov       : Ab Initio Ligand Field Theory (pilot matlab implementation)
   Alexander A. Auer      : GIAO ZORA, VPT2 properties, NMR spectrum
   Ute Becker             : Parallelization
   Giovanni Bistoni       : ED, misc. LED, open-shell LED, HFLD
   Martin Brehm           : Molecular dynamics
   Dmytro Bykov           : SCF Hessian
   Vijay G. Chilkuri      : MRCI spin determinant printing, contributions to CSF-ICE
   Dipayan Datta          : RHF DLPNO-CCSD density
   Achintya Kumar Dutta   : EOM-CC, STEOM-CC
   Dmitry Ganyushin       : Spin-Orbit,Spin-Spin,Magnetic field MRCI
   Miquel Garcia          : C-PCM and meta-GGA Hessian, CC/C-PCM, Gaussian charge scheme
   Yang Guo               : DLPNO-NEVPT2, F12-NEVPT2, CIM, IAO-localization
   Andreas Hansen         : Spin unrestricted coupled pair/coupled cluster methods
   Benjamin Helmich-Paris : MC-RPA, TRAH-SCF, COSX integrals
   Lee Huntington         : MR-EOM, pCC
   Robert Izsak           : Overlap fitted RIJCOSX, COSX-SCS-MP3, EOM
   Marcus Kettner         : VPT2
   Christian Kollmar      : KDIIS, OOCD, Brueckner-CCSD(T), CCSD density, CASPT2, CASPT2-K
   Simone Kossmann        : Meta GGA functionals, TD-DFT gradient, OOMP2, MP2 Hessian
   Martin Krupicka        : Initial AUTO-CI
   Lucas Lang             : DCDCAS
   Marvin Lechner         : AUTO-CI (C++ implementation), FIC-MRCC
   Dagmar Lenk            : GEPOL surface, SMD
   Dimitrios Liakos       : Extrapolation schemes; Compound Job, initial MDCI parallelization
   Dimitrios Manganas     : Further ROCIS development; embedding schemes
   Dimitrios Pantazis     : SARC Basis sets
   Anastasios Papadopoulos: AUTO-CI, single reference methods and gradients
   Taras Petrenko         : DFT Hessian,TD-DFT gradient, ASA, ECA, R-Raman, ABS, FL, XAS/XES, NRVS
   Peter Pinski           : DLPNO-MP2, DLPNO-MP2 Gradient
   Christoph Reimann      : Effective Core Potentials
   Marius Retegan         : Local ZFS, SOC
   Christoph Riplinger    : Optimizer, TS searches, QM/MM, DLPNO-CCSD(T), (RO)-DLPNO pert. Triples
   Tobias Risthaus        : Range-separated hybrids, TD-DFT gradient, RPA, STAB
   Michael Roemelt        : Original ROCIS implementation
   Masaaki Saitow         : Open-shell DLPNO-CCSD energy and density
   Barbara Sandhoefer     : DKH picture change effects
   Avijit Sen             : IP-ROCIS
   Kantharuban Sivalingam : CASSCF convergence, NEVPT2, FIC-MRCI
   Bernardo de Souza      : ESD, SOC TD-DFT
   Georgi Stoychev        : AutoAux, RI-MP2 NMR, DLPNO-MP2 response
   Willem Van den Heuvel  : Paramagnetic NMR
   Boris Wezisla          : Elementary symmetry handling
   Frank Wennmohs         : Technical directorship


 We gratefully acknowledge several colleagues who have allowed us to
 interface, adapt or use parts of their codes:
   Stefan Grimme, W. Hujo, H. Kruse, P. Pracht,  : VdW corrections, initial TS optimization,
                  C. Bannwarth, S. Ehlert          DFT functionals, gCP, sTDA/sTD-DF
   Ed Valeev, F. Pavosevic, A. Kumar             : LibInt (2-el integral package), F12 methods
   Garnet Chan, S. Sharma, J. Yang, R. Olivares  : DMRG
   Ulf Ekstrom                                   : XCFun DFT Library
   Mihaly Kallay                                 : mrcc  (arbitrary order and MRCC methods)
   Jiri Pittner, Ondrej Demel                    : Mk-CCSD
   Frank Weinhold                                : gennbo (NPA and NBO analysis)
   Christopher J. Cramer and Donald G. Truhlar   : smd solvation model
   Lars Goerigk                                  : TD-DFT with DH, B97 family of functionals
   V. Asgeirsson, H. Jonsson                     : NEB implementation
   FAccTs GmbH                                   : IRC, NEB, NEB-TS, DLPNO-Multilevel, CI-OPT
                                                   MM, QMMM, 2- and 3-layer-ONIOM, Crystal-QMMM,
                                                   LR-CPCM, SF, NACMEs, symmetry and pop. for TD-DFT,
                                                   nearIR, NL-DFT gradient (VV10), updates on ESD,
                                                   ML-optimized integration grids
   S Lehtola, MJT Oliveira, MAL Marques          : LibXC Library
   Liviu Ungur et al                             : ANISO software


 Your calculation uses the libint2 library for the computation of 2-el integrals
 For citations please refer to: http://libint.valeyev.net

 Your ORCA version has been built with support for libXC version: 5.1.0
 For citations please refer to: https://tddft.org/programs/libxc/

 This ORCA versions uses:
   CBLAS   interface :  Fast vector & matrix operations
   LAPACKE interface :  Fast linear algebra routines
   SCALAPACK package :  Parallel linear algebra routines
   Shared memory     :  Shared parallel matrices
   BLAS/LAPACK       :  OpenBLAS 0.3.15  USE64BITINT DYNAMIC_ARCH NO_AFFINITY Zen SINGLE_THREADED
        Core in use  :  Zen
   Copyright (c) 2011-2014, The OpenBLAS Project


================================================================================

----- Orbital basis set information -----
Your calculation utilizes the basis: def2-SVP
   F. Weigend and R. Ahlrichs, Phys. Chem. Chem. Phys. 7, 3297 (2005).

================================================================================
                                        WARNINGS
                       Please study these warnings very carefully!
================================================================================


INFO   : the flag for use of the SHARK integral package has been found!

================================================================================
                                       INPUT FILE
================================================================================
NAME = calc.inp
|  1> !FREQ HF Def2-SVP
|  2> *xyz 1 1
|  3> C   -2.90770000   1.66310000   0.00000000
|  4> H   -2.55100000   2.16750000   0.87370000
|  5> H   -3.97770000   1.66310000   0.00000000
|  6> H   -2.55100000   2.16750000  -0.87370000
|  7> *
|  8> %MaxCore 500
|  9> %pal
| 10> nprocs 4
| 11> endd                         ****END OF INPUT****
================================================================================

                       ****************************
                       * Single Point Calculation *
                       ****************************

---------------------------------
CARTESIAN COORDINATES (ANGSTROEM)
---------------------------------
  C     -2.907700    1.663100    0.000000
  H     -2.551000    2.167500    0.873700
  H     -3.977700    1.663100    0.000000
  H     -2.551000    2.167500   -0.873700

----------------------------
CARTESIAN COORDINATES (A.U.)
----------------------------
  NO LB      ZA    FRAG     MASS         X           Y           Z
   0 C     6.0000    0    12.011   -5.494757    3.142804    0.000000
   1 H     1.0000    0     1.008   -4.820691    4.095981    1.651054
   2 H     1.0000    0     1.008   -7.516764    3.142804    0.000000
   3 H     1.0000    0     1.008   -4.820691    4.095981   -1.651054

--------------------------------
INTERNAL COORDINATES (ANGSTROEM)
--------------------------------
 C      0   0   0     0.000000000000     0.00000000     0.00000000
 H      1   0   0     1.070049503528     0.00000000     0.00000000
 H      1   2   0     1.070000000000   109.47217659     0.00000000
 H      1   2   3     1.070049503528   109.47274885   120.00269215

---------------------------
INTERNAL COORDINATES (A.U.)
---------------------------
 C      0   0   0     0.000000000000     0.00000000     0.00000000
 H      1   0   0     2.022100511406     0.00000000     0.00000000
 H      1   2   0     2.022006963296   109.47217659     0.00000000
 H      1   2   3     2.022100511406   109.47274885   120.00269215

---------------------
BASIS SET INFORMATION
---------------------
There are 2 groups of distinct atoms

 Group   1 Type C   : 7s4p1d contracted to 3s2p1d pattern {511/31/1}
 Group   2 Type H   : 4s1p contracted to 2s1p pattern {31/1}

Atom   0C    basis set group =>   1
Atom   1H    basis set group =>   2
Atom   2H    basis set group =>   2
Atom   3H    basis set group =>   2


           ************************************************************
           *        Program running with 4 parallel MPI-processes     *
           *              working on a common directory               *
           ************************************************************
------------------------------------------------------------------------------
                           ORCA GTO INTEGRAL CALCULATION
------------------------------------------------------------------------------
------------------------------------------------------------------------------
                   ___                                                        
                  /   \      - P O W E R E D   B Y -                         
                 /     \                                                     
                 |  |  |   _    _      __       _____    __    __             
                 |  |  |  | |  | |    /  \     |  _  \  |  |  /  |          
                  \  \/   | |  | |   /    \    | | | |  |  | /  /          
                 / \  \   | |__| |  /  /\  \   | |_| |  |  |/  /          
                |  |  |   |  __  | /  /__\  \  |    /   |      \           
                |  |  |   | |  | | |   __   |  |    \   |  |\   \          
                \     /   | |  | | |  |  |  |  | |\  \  |  | \   \       
                 \___/    |_|  |_| |__|  |__|  |_| \__\ |__|  \__/        
                                                                              
                      - O R C A' S   B I G   F R I E N D -                    
                                      &                                       
                       - I N T E G R A L  F E E D E R -                       
                                                                              
 v1 FN, 2020, v2 2021                                                         
------------------------------------------------------------------------------


Reading SHARK input file calc.SHARKINP.tmp ... ok
----------------------
SHARK INTEGRAL PACKAGE
----------------------

Number of atoms                             ...      4
Number of basis functions                   ...     29
Number of shells                            ...     15
Maximum angular momentum                    ...      2
Integral batch strategy                     ... SHARK/LIBINT Hybrid
RI-J (if used) integral strategy            ... SPLIT-RIJ (Revised 2003 algorithm where possible)
Printlevel                                  ...      1
Contraction scheme used                     ... SEGMENTED contraction
Coulomb Range Separation                    ... NOT USED
Exchange Range Separation                   ... NOT USED
Finite Nucleus Model                        ... NOT USED
Auxiliary Coulomb fitting basis             ... NOT available
Auxiliary J/K fitting basis                 ... NOT available
Auxiliary Correlation fitting basis         ... NOT available
Auxiliary 'external' fitting basis          ... NOT available
Integral threshold                          ...     1.000000e-10
Primitive cut-off                           ...     1.000000e-11
Primitive pair pre-selection threshold      ...     1.000000e-11

Calculating pre-screening integrals         ... done (  0.0 sec) Dimension = 15
Organizing shell pair data                  ... done (  0.0 sec)
Shell pair information
Total number of shell pairs                 ...       120
Shell pairs after pre-screening             ...       120
Total number of primitive shell pairs       ...       400
Primitive shell pairs kept                  ...       388
          la=0 lb=0:     45 shell pairs
          la=1 lb=0:     45 shell pairs
          la=1 lb=1:     15 shell pairs
          la=2 lb=0:      9 shell pairs
          la=2 lb=1:      5 shell pairs
          la=2 lb=2:      1 shell pairs

Calculating one electron integrals          ... done (  0.0 sec)
Calculating Nuclear repulsion               ... done (  0.0 sec) ENN=      9.810298803803 Eh

SHARK setup successfully completed in   0.1 seconds

Maximum memory used throughout the entire GTOINT-calculation: 6.8 MB


           ************************************************************
           *        Program running with 4 parallel MPI-processes     *
           *              working on a common directory               *
           ************************************************************
-------------------------------------------------------------------------------
                                 ORCA SCF
-------------------------------------------------------------------------------

------------
SCF SETTINGS
------------
Hamiltonian:
 Ab initio Hamiltonian  Method          .... Hartree-Fock(GTOs)


General Settings:
 Integral files         IntName         .... calc
 Hartree-Fock type      HFTyp           .... RHF
 Total Charge           Charge          ....    1
 Multiplicity           Mult            ....    1
 Number of Electrons    NEL             ....    8
 Basis Dimension        Dim             ....   29
 Nuclear Repulsion      ENuc            ....      9.8102988038 Eh

Convergence Acceleration:
 DIIS                   CNVDIIS         .... on
   Start iteration      DIISMaxIt       ....    12
   Startup error        DIISStart       ....  0.200000
   # of expansion vecs  DIISMaxEq       ....     5
   Bias factor          DIISBfac        ....   1.050
   Max. coefficient     DIISMaxC        ....  10.000
 Trust-Rad. Augm. Hess. CNVTRAH         .... auto
   Auto Start mean grad. ratio tolernc. ....  1.125000
   Auto Start start iteration           ....    20
   Auto Start num. interpolation iter.  ....    10
   Max. Number of Micro iterations      ....    16
   Max. Number of Macro iterations      .... Maxiter - #DIIS iter
   Number of Davidson start vectors     ....     2
   Converg. threshold I  (grad. norm)   ....   5.000e-05
   Converg. threshold II (energy diff.) ....   1.000e-06
   Grad. Scal. Fac. for Micro threshold ....   0.100
   Minimum threshold for Micro iter.    ....   0.010
   NR start threshold (gradient norm)   ....   0.001
   Initial trust radius                 ....   0.400
   Minimum AH scaling param. (alpha)    ....   1.000
   Maximum AH scaling param. (alpha)    .... 1000.000
   Orbital update algorithm             .... Taylor
   White noise on init. David. guess    .... on
   Maximum white noise                  ....   0.010
   Quad. conv. algorithm                .... NR
 SOSCF                  CNVSOSCF        .... on
   Start iteration      SOSCFMaxIt      ....   150
   Startup grad/error   SOSCFStart      ....  0.003300
 Level Shifting         CNVShift        .... on
   Level shift para.    LevelShift      ....    0.2500
   Turn off err/grad.   ShiftErr        ....    0.0010
 Zerner damping         CNVZerner       .... off
 Static damping         CNVDamp         .... on
   Fraction old density DampFac         ....    0.7000
   Max. Damping (<1)    DampMax         ....    0.9800
   Min. Damping (>=0)   DampMin         ....    0.0000
   Turn off err/grad.   DampErr         ....    0.1000
 Fernandez-Rico         CNVRico         .... off

SCF Procedure:
 Maximum # iterations   MaxIter         ....   125
 SCF integral mode      SCFMode         .... Direct
   Integral package                     .... SHARK and LIBINT hybrid scheme
 Reset frequency        DirectResetFreq ....    20
 Integral Threshold     Thresh          ....  1.000e-10 Eh
 Primitive CutOff       TCut            ....  1.000e-11 Eh

Convergence Tolerance:
 Convergence Check Mode ConvCheckMode   .... Total+1el-Energy
 Convergence forced     ConvForced      .... 0
 Energy Change          TolE            ....  1.000e-06 Eh
 1-El. energy change                    ....  1.000e-03 Eh
 Orbital Gradient       TolG            ....  5.000e-05
 Orbital Rotation angle TolX            ....  5.000e-05
 DIIS Error             TolErr          ....  1.000e-06


Diagonalization of the overlap matrix:
Smallest eigenvalue                        ... 1.724e-02
Time for diagonalization                   ...    0.001 sec
Threshold for overlap eigenvalues          ... 1.000e-08
Number of eigenvalues below threshold      ... 0
Time for construction of square roots      ...    0.001 sec
Total time needed                          ...    0.001 sec

Time for model grid setup =    0.011 sec

------------------------------
INITIAL GUESS: MODEL POTENTIAL
------------------------------
Loading Hartree-Fock densities                     ... done
Calculating cut-offs                               ... done
Initializing the effective Hamiltonian             ... done
Setting up the integral package (SHARK)            ... done
Starting the Coulomb interaction                   ... done (   0.0 sec)
Reading the grid                                   ... done
Mapping shells                                     ... done
Starting the XC term evaluation                    ... done (   0.0 sec)
Transforming the Hamiltonian                       ... done (   0.0 sec)
Diagonalizing the Hamiltonian                      ... done (   0.0 sec)
Back transforming the eigenvectors                 ... done (   0.0 sec)
Now organizing SCF variables                       ... done
                      ------------------
                      INITIAL GUESS DONE (   0.0 sec)
                      ------------------
--------------
SCF ITERATIONS
--------------
ITER       Energy         Delta-E        Max-DP      RMS-DP      [F,P]     Damp
               ***  Starting incremental Fock matrix formation  ***
  0    -39.1393650181   0.000000000000 0.01729451  0.00130814  0.0716729 0.7000
  1    -39.1424828888  -0.003117870669 0.01295460  0.00114933  0.0562544 0.7000
                               ***Turning on DIIS***
  2    -39.1448219901  -0.002339101319 0.03048385  0.00297310  0.0426425 0.0000
  3    -39.1482279452  -0.003405955106 0.00556885  0.00071210  0.0088628 0.0000
  4    -39.1525917814  -0.004363836149 0.00235315  0.00023209  0.0044660 0.0000
                      *** Initiating the SOSCF procedure ***
                           *** Shutting down DIIS ***
                      *** Re-Reading the Fockian *** 
                      *** Removing any level shift *** 
ITER      Energy       Delta-E        Grad      Rot      Max-DP    RMS-DP
  5    -39.15059753   0.0019942547  0.001170  0.001170  0.000727  0.000056
               *** Restarting incremental Fock matrix formation ***
  6    -39.15094853  -0.0003509991  0.000239  0.000248  0.000217  0.000016
                 **** Energy Check signals convergence ****
              ***Rediagonalizing the Fockian in SOSCF/NRSCF***

               *****************************************************
               *                     SUCCESS                       *
               *           SCF CONVERGED AFTER   7 CYCLES          *
               *****************************************************


----------------
TOTAL SCF ENERGY
----------------

Total Energy       :          -39.15094871 Eh           -1065.35148 eV

Components:
Nuclear Repulsion  :            9.81029880 Eh             266.95180 eV
Electronic Energy  :          -48.96124752 Eh           -1332.30328 eV
One Electron Energy:          -68.19433314 Eh           -1855.66214 eV
Two Electron Energy:           19.23308562 Eh             523.35887 eV

Virial components:
Potential Energy   :          -78.19152005 Eh           -2127.69943 eV
Kinetic Energy     :           39.04057133 Eh            1062.34795 eV
Virial Ratio       :            2.00282725


---------------
SCF CONVERGENCE
---------------

  Last Energy change         ...   -1.8832e-07  Tolerance :   1.0000e-06
  Last MAX-Density change    ...    1.0352e-04  Tolerance :   1.0000e-05
  Last RMS-Density change    ...    8.9254e-06  Tolerance :   1.0000e-06
  Last Orbital Gradient      ...    7.5682e-05  Tolerance :   5.0000e-05
  Last Orbital Rotation      ...    1.2651e-04  Tolerance :   5.0000e-05

             **** THE GBW FILE WAS UPDATED (calc.gbw) ****
             **** DENSITY calc.scfp WAS UPDATED ****
             **** ENERGY FILE WAS UPDATED (calc.en.tmp) ****
             **** THE GBW FILE WAS UPDATED (calc.gbw) ****
             **** DENSITY calc.scfp WAS UPDATED ****
----------------
ORBITAL ENERGIES
----------------

  NO   OCC          E(Eh)            E(eV) 
   0   2.0000     -11.693068      -318.1845 
   1   2.0000      -1.283985       -34.9390 
   2   2.0000      -0.943498       -25.6739 
   3   2.0000      -0.943487       -25.6736 
   4   0.0000      -0.320717        -8.7272 
   5   0.0000      -0.050938        -1.3861 
   6   0.0000       0.005072         0.1380 
   7   0.0000       0.005080         0.1382 
   8   0.0000       0.280728         7.6390 
   9   0.0000       0.280735         7.6392 
  10   0.0000       0.358930         9.7670 
  11   0.0000       0.469672        12.7804 
  12   0.0000       0.583854        15.8875 
  13   0.0000       0.584118        15.8947 
  14   0.0000       0.584140        15.8952 
  15   0.0000       1.043149        28.3855 
  16   0.0000       1.043154        28.3857 
  17   0.0000       1.455275        39.6001 
  18   0.0000       1.472910        40.0799 
  19   0.0000       1.607059        43.7303 
  20   0.0000       1.607082        43.7309 
  21   0.0000       1.904600        51.8268 
  22   0.0000       1.904639        51.8279 
  23   0.0000       2.118747        57.6540 
  24   0.0000       2.395350        65.1808 
  25   0.0000       2.395374        65.1814 
  26   0.0000       2.717505        73.9471 
  27   0.0000       2.909401        79.1688 
  28   0.0000       2.909467        79.1706 

                    ********************************
                    * MULLIKEN POPULATION ANALYSIS *
                    ********************************

-----------------------
MULLIKEN ATOMIC CHARGES
-----------------------
   0 C :    0.365450
   1 H :    0.211526
   2 H :    0.211497
   3 H :    0.211526
Sum of atomic charges:    1.0000000

--------------------------------
MULLIKEN REDUCED ORBITAL CHARGES
--------------------------------
  0 C s       :     3.234678  s :     3.234678
      pz      :     1.178767  p :     2.379008
      px      :     1.050206
      py      :     0.150036
      dz2     :     0.005708  d :     0.020864
      dxz     :     0.003856
      dyz     :     0.005751
      dx2y2   :     0.004925
      dxy     :     0.000624
  1 H s       :     0.758128  s :     0.758128
      pz      :     0.017269  p :     0.030346
      px      :     0.005767
      py      :     0.007309
  2 H s       :     0.758156  s :     0.758156
      pz      :     0.004978  p :     0.030347
      px      :     0.024926
      py      :     0.000444
  3 H s       :     0.758128  s :     0.758128
      pz      :     0.017269  p :     0.030346
      px      :     0.005767
      py      :     0.007309


                     *******************************
                     * LOEWDIN POPULATION ANALYSIS *
                     *******************************

----------------------
LOEWDIN ATOMIC CHARGES
----------------------
   0 C :    0.681487
   1 H :    0.106180
   2 H :    0.106153
   3 H :    0.106180

-------------------------------
LOEWDIN REDUCED ORBITAL CHARGES
-------------------------------
  0 C s       :     2.946613  s :     2.946613
      pz      :     1.156666  p :     2.331536
      px      :     1.030204
      py      :     0.144667
      dz2     :     0.010872  d :     0.040363
      dxz     :     0.007493
      dyz     :     0.011728
      dx2y2   :     0.009302
      dxy     :     0.000968
  1 H s       :     0.812741  s :     0.812741
      pz      :     0.044880  p :     0.081079
      px      :     0.015973
      py      :     0.020226
  2 H s       :     0.812762  s :     0.812762
      pz      :     0.014718  p :     0.081086
      px      :     0.064734
      py      :     0.001634
  3 H s       :     0.812741  s :     0.812741
      pz      :     0.044880  p :     0.081079
      px      :     0.015973
      py      :     0.020226


                      *****************************
                      * MAYER POPULATION ANALYSIS *
                      *****************************

  NA   - Mulliken gross atomic population
  ZA   - Total nuclear charge
  QA   - Mulliken gross atomic charge
  VA   - Mayer's total valence
  BVA  - Mayer's bonded valence
  FA   - Mayer's free valence

  ATOM       NA         ZA         QA         VA         BVA        FA
  0 C      5.6345     6.0000     0.3655     2.8627     2.8627     0.0000
  1 H      0.7885     1.0000     0.2115     0.9583     0.9583     0.0000
  2 H      0.7885     1.0000     0.2115     0.9584     0.9584     0.0000
  3 H      0.7885     1.0000     0.2115     0.9583     0.9583     0.0000

  Mayer bond orders larger than 0.100000
B(  0-C ,  1-H ) :   0.9542 B(  0-C ,  2-H ) :   0.9543 B(  0-C ,  3-H ) :   0.9542 


-------
TIMINGS
-------

Total SCF time: 0 days 0 hours 0 min 0 sec 

Total time                  ....       0.168 sec
Sum of individual times     ....       0.054 sec  ( 32.3%)

Fock matrix formation       ....       0.032 sec  ( 19.2%)
Diagonalization             ....       0.002 sec  (  1.4%)
Density matrix formation    ....       0.000 sec  (  0.1%)
Population analysis         ....       0.001 sec  (  0.5%)
Initial guess               ....       0.004 sec  (  2.5%)
Orbital Transformation      ....       0.000 sec  (  0.0%)
Orbital Orthonormalization  ....       0.000 sec  (  0.0%)
DIIS solution               ....       0.003 sec  (  1.9%)
SOSCF solution              ....       0.001 sec  (  0.4%)

Maximum memory used throughout the entire SCF-calculation: 224.1 MB

-------------------------   --------------------
FINAL SINGLE POINT ENERGY       -39.150948714107
-------------------------   --------------------


                            ***************************************
                            *     ORCA property calculations      *
                            ***************************************

                                    ---------------------
                                    Active property flags
                                    ---------------------
   (+) Dipole Moment


------------------------------------------------------------------------------
                       ORCA ELECTRIC PROPERTIES CALCULATION
------------------------------------------------------------------------------

Dipole Moment Calculation                       ... on
Quadrupole Moment Calculation                   ... off
Polarizability Calculation                      ... off
GBWName                                         ... calc.gbw
Electron density                                ... calc.scfp
The origin for moment calculation is the CENTER OF MASS  = (-5.539936,  3.270612  0.000000)

-------------
DIPOLE MOMENT
-------------
                                X             Y             Z
Electronic contribution:      0.24843      -0.70276      -0.00000
Nuclear contribution   :     -0.26726       0.75608       0.00000
                        -----------------------------------------
Total Dipole Moment    :     -0.01883       0.05332      -0.00000
                        -----------------------------------------
Magnitude (a.u.)       :      0.05655
Magnitude (Debye)      :      0.14373



--------------------
Rotational spectrum 
--------------------
 
Rotational constants in cm-1:     9.131461     9.130920     5.477308 
Rotational constants in MHz : 273754.325982 273738.102198 164205.556177 

 Dipole components along the rotational axes: 
x,y,z [a.u.] :    -0.000000    -0.000016     0.056548 
x,y,z [Debye]:    -0.000000    -0.000040     0.143734 

 


           ************************************************************
           *        Program running with 4 parallel MPI-processes     *
           *              working on a common directory               *
           ************************************************************

-------------------------------------------------------------------------------
                               ORCA SCF HESSIAN
-------------------------------------------------------------------------------

                   --------- SHARK INITIALIZATION DONE ---------

Hessian of the Hartree-Fock SCF energy:
Hartree-Fock type                                ... RHF
Number of operators                              ...    1
Number of atoms                                  ...    4
Basis set dimensions                             ...   29
Integral neglect threshold                       ... 1.0e-10
Integral primitive cutoff                        ... 1.0e-11

Nuclear repulsion Hessian  (SHARK)               ... done   (      0.0 sec)

----------------------------------------------
Forming right-hand sides of CP-SCF equations     ...
----------------------------------------------
One electron integral derivatives  (SHARK)       ... done   (      0.0 sec)
Transforming the overlap derivative matrices     ... done   (      0.0 sec)
Making the Q(x) pseudodensities                  ... done   (      0.0 sec)
Adding the E*S(x)*S(y) terms to the Hessian      ... done   (      0.0 sec)
Calculating energy weighted overlap derivatives  ... done   (      0.0 sec)
Two electron integral derivatives (SHARK)        ... done   (      0.0 sec)
tr(F(y)Q(x)) contribution to the Hessian         ... done   (      0.0 sec)
Response fock operator R(S(x)) (SHARK)           ... done   (      0.1 sec)
tr(F(y)S(x)) contribution to the Hessian         ... done   (      0.0 sec)
Transforming and finalizing RHSs                 ... done   (      0.0 sec)

----------------------------------------------
Solving the CP-SCF equations                     ...
----------------------------------------------
     CP-SCF ITERATION   0:   4.9955e-02 (   0.0 sec   0/ 12 done)
     CP-SCF ITERATION   1:   1.5022e-02 (   0.0 sec   0/ 12 done)
     CP-SCF ITERATION   2:   5.2366e-03 (   0.0 sec   0/ 12 done)
     CP-SCF ITERATION   3:   1.0012e-03 (   0.0 sec  11/ 12 done)
     CP-SCF ITERATION   4:   1.1546e-04 (   0.0 sec  12/ 12 done)
                    *** THE CP-SCF HAS CONVERGED ***

                                                 ... done   (      0.0 sec)
Forming perturbed density Hessian contributions  ... done   (      0.0 sec)
2nd integral derivative contribs (SHARK)         ... done   (      0.1 sec)
Dipole derivatives                               ... (center of mass: -5.539936,  3.270612  0.000000)done   (      0.1 sec)

Total SCF Hessian time: 0 days 0 hours 0 min 0 sec 

Writing the Hessian file to the disk             ... done


Maximum memory used throughout the entire SCFHESS-calculation: 50.1 MB

-----------------------
VIBRATIONAL FREQUENCIES
-----------------------

Scaling factor for frequencies =  1.000000000  (already applied!)

   0:         0.00 cm**-1
   1:         0.00 cm**-1
   2:         0.00 cm**-1
   3:         0.00 cm**-1
   4:         0.00 cm**-1
   5:         0.00 cm**-1
   6:      1355.51 cm**-1
   7:      1356.13 cm**-1
   8:      1403.14 cm**-1
   9:      3414.33 cm**-1
  10:      3568.61 cm**-1
  11:      3569.06 cm**-1


------------
NORMAL MODES
------------

These modes are the Cartesian displacements weighted by the diagonal matrix
M(i,i)=1/sqrt(m[i]) where m[i] is the mass of the displaced atom
Thus, these vectors are normalized but *not* orthogonal

                  0          1          2          3          4          5    
      0       0.000000   0.000000   0.000000   0.000000   0.000000   0.000000
      1       0.000000   0.000000   0.000000   0.000000   0.000000   0.000000
      2       0.000000   0.000000   0.000000   0.000000   0.000000   0.000000
      3       0.000000   0.000000   0.000000   0.000000   0.000000   0.000000
      4       0.000000   0.000000   0.000000   0.000000   0.000000   0.000000
      5       0.000000   0.000000   0.000000   0.000000   0.000000   0.000000
      6       0.000000   0.000000   0.000000   0.000000   0.000000   0.000000
      7       0.000000   0.000000   0.000000   0.000000   0.000000   0.000000
      8       0.000000   0.000000   0.000000   0.000000   0.000000   0.000000
      9       0.000000   0.000000   0.000000   0.000000   0.000000   0.000000
     10       0.000000   0.000000   0.000000   0.000000   0.000000   0.000000
     11       0.000000   0.000000   0.000000   0.000000   0.000000   0.000000
                  6          7          8          9         10         11    
      0       0.000000  -0.074290  -0.045746  -0.011876   0.000000   0.089803
      1       0.000000  -0.026319   0.129312   0.033877   0.000000   0.031701
      2       0.078806   0.000000   0.000000   0.000000  -0.095242   0.000000
      3       0.436970   0.473539   0.263772  -0.216166   0.240526  -0.128372
      4      -0.048800   0.285016  -0.484547  -0.227794   0.330724  -0.187035
      5      -0.084529  -0.395765   0.150434  -0.484506   0.572865  -0.336532
      6       0.000000  -0.061863   0.017551   0.573836  -0.000000  -0.813318
      7       0.000000  -0.256426  -0.571747   0.051925  -0.000000  -0.003672
      8      -0.769968  -0.000000  -0.000000   0.000000  -0.010853   0.000000
      9      -0.436970   0.473539   0.263772  -0.216166  -0.240526  -0.128372
     10       0.048800   0.285016  -0.484547  -0.227794  -0.330724  -0.187035
     11      -0.084529   0.395765  -0.150434   0.484506   0.572865   0.336532


-----------
IR SPECTRUM
-----------

 Mode   freq       eps      Int      T**2         TX        TY        TZ
       cm**-1   L/(mol*cm) km/mol    a.u.
----------------------------------------------------------------------------
  6:   1355.51   0.007339   37.09  0.001689  (-0.000000 -0.000000 -0.041103)
  7:   1356.13   0.007352   37.15  0.001692  ( 0.038780  0.013708 -0.000000)
  8:   1403.14   0.001424    7.20  0.000317  ( 0.005979 -0.016761  0.000000)
  9:   3414.33   0.016182   81.78  0.001479  ( 0.012707 -0.036298 -0.000000)
 10:   3568.61   0.012747   64.42  0.001115  (-0.000000 -0.000000  0.033387)
 11:   3569.06   0.012705   64.21  0.001111  (-0.031430 -0.011093 -0.000000)

* The epsilon (eps) is given for a Dirac delta lineshape.
** The dipole moment derivative (T) already includes vibrational overlap.

The first frequency considered to be a vibration is 6
The total number of vibrations considered is 6


--------------------------
THERMOCHEMISTRY AT 298.15K
--------------------------

Temperature         ... 298.15 K
Pressure            ... 1.00 atm
Total Mass          ... 15.03 AMU

Throughout the following assumptions are being made:
  (1) The electronic state is orbitally nondegenerate
  (2) There are no thermally accessible electronically excited states
  (3) Hindered rotations indicated by low frequency modes are not
      treated as such but are treated as vibrations and this may
      cause some error
  (4) All equations used are the standard statistical mechanics
      equations for an ideal gas
  (5) All vibrations are strictly harmonic

freq.    1355.51  E(vib)   ...       0.01 
freq.    1356.13  E(vib)   ...       0.01 
freq.    1403.14  E(vib)   ...       0.00 
freq.    3414.33  E(vib)   ...       0.00 
freq.    3568.61  E(vib)   ...       0.00 
freq.    3569.06  E(vib)   ...       0.00 

------------
INNER ENERGY
------------

The inner energy is: U= E(el) + E(ZPE) + E(vib) + E(rot) + E(trans)
    E(el)   - is the total energy from the electronic structure calculation
              = E(kin-el) + E(nuc-el) + E(el-el) + E(nuc-nuc)
    E(ZPE)  - the the zero temperature vibrational energy from the frequency calculation
    E(vib)  - the the finite temperature correction to E(ZPE) due to population
              of excited vibrational states
    E(rot)  - is the rotational thermal energy
    E(trans)- is the translational thermal energy

Summary of contributions to the inner energy U:
Electronic energy                ...    -39.15094871 Eh
Zero point energy                ...      0.03341340 Eh      20.97 kcal/mol
Thermal vibrational correction   ...      0.00002517 Eh       0.02 kcal/mol
Thermal rotational correction    ...      0.00141627 Eh       0.89 kcal/mol
Thermal translational correction ...      0.00141627 Eh       0.89 kcal/mol
-----------------------------------------------------------------------
Total thermal energy                    -39.11467760 Eh


Summary of corrections to the electronic energy:
(perhaps to be used in another calculation)
Total thermal correction                  0.00285771 Eh       1.79 kcal/mol
Non-thermal (ZPE) correction              0.03341340 Eh      20.97 kcal/mol
-----------------------------------------------------------------------
Total correction                          0.03627111 Eh      22.76 kcal/mol


--------
ENTHALPY
--------

The enthalpy is H = U + kB*T
                kB is Boltzmann's constant
Total free energy                 ...    -39.11467760 Eh 
Thermal Enthalpy correction       ...      0.00094421 Eh       0.59 kcal/mol
-----------------------------------------------------------------------
Total Enthalpy                    ...    -39.11373339 Eh


Note: Rotational entropy computed according to Herzberg 
Infrared and Raman Spectra, Chapter V,1, Van Nostrand Reinhold, 1945 
Point Group:  C3v, Symmetry Number:   3  
Rotational constants in cm-1:     9.131461     9.130920     5.477308 

Vibrational entropy computed according to the QRRHO of S. Grimme
Chem.Eur.J. 2012 18 9955


-------
ENTROPY
-------

The entropy contributions are T*S = T*(S(el)+S(vib)+S(rot)+S(trans))
     S(el)   - electronic entropy
     S(vib)  - vibrational entropy
     S(rot)  - rotational entropy
     S(trans)- translational entropy
The entropies will be listed as multiplied by the temperature to get
units of energy

Electronic entropy                ...      0.00000000 Eh      0.00 kcal/mol
Vibrational entropy               ...      0.00002898 Eh      0.02 kcal/mol
Rotational entropy                ...      0.00558244 Eh      3.50 kcal/mol
Translational entropy             ...      0.01618771 Eh     10.16 kcal/mol
-----------------------------------------------------------------------
Final entropy term                ...      0.02179912 Eh     13.68 kcal/mol

In case the symmetry of your molecule has not been determined correctly
or in case you have a reason to use a different symmetry number we print 
out the resulting rotational entropy values for sn=1,12 :
 --------------------------------------------------------
|  sn= 1 | S(rot)=       0.00661973 Eh      4.15 kcal/mol|
|  sn= 2 | S(rot)=       0.00596527 Eh      3.74 kcal/mol|
|  sn= 3 | S(rot)=       0.00558244 Eh      3.50 kcal/mol|
|  sn= 4 | S(rot)=       0.00531081 Eh      3.33 kcal/mol|
|  sn= 5 | S(rot)=       0.00510012 Eh      3.20 kcal/mol|
|  sn= 6 | S(rot)=       0.00492798 Eh      3.09 kcal/mol|
|  sn= 7 | S(rot)=       0.00478243 Eh      3.00 kcal/mol|
|  sn= 8 | S(rot)=       0.00465636 Eh      2.92 kcal/mol|
|  sn= 9 | S(rot)=       0.00454515 Eh      2.85 kcal/mol|
|  sn=10 | S(rot)=       0.00444567 Eh      2.79 kcal/mol|
|  sn=11 | S(rot)=       0.00435568 Eh      2.73 kcal/mol|
|  sn=12 | S(rot)=       0.00427352 Eh      2.68 kcal/mol|
 --------------------------------------------------------


-------------------
GIBBS FREE ENERGY
-------------------

The Gibbs free energy is G = H - T*S

Total enthalpy                    ...    -39.11373339 Eh 
Total entropy correction          ...     -0.02179912 Eh    -13.68 kcal/mol
-----------------------------------------------------------------------
Final Gibbs free energy         ...    -39.13553252 Eh

For completeness - the Gibbs free energy minus the electronic energy
G-E(el)                           ...      0.01541620 Eh      9.67 kcal/mol


Timings for individual modules:

Sum of individual times         ...        1.719 sec (=   0.029 min)
GTO integral calculation        ...        0.432 sec (=   0.007 min)  25.1 %
SCF iterations                  ...        0.504 sec (=   0.008 min)  29.3 %
Analytical frequency calculation...        0.783 sec (=   0.013 min)  45.6 %
                             ****ORCA TERMINATED NORMALLY****
TOTAL RUN TIME: 0 days 0 hours 0 minutes 2 seconds 98 msec
