
                                 *****************
                                 * O   R   C   A *
                                 *****************

                                            #,                                       
                                            ###                                      
                                            ####                                     
                                            #####                                    
                                            ######                                   
                                           ########,                                 
                                     ,,################,,,,,                         
                               ,,#################################,,                 
                          ,,##########################################,,             
                       ,#########################################, ''#####,          
                    ,#############################################,,   '####,        
                  ,##################################################,,,,####,       
                ,###########''''           ''''###############################       
              ,#####''   ,,,,##########,,,,          '''####'''          '####       
            ,##' ,,,,###########################,,,                        '##       
           ' ,,###''''                  '''############,,,                           
         ,,##''                                '''############,,,,        ,,,,,,###''
      ,#''                                            '''#######################'''  
     '                                                          ''''####''''         
             ,#######,   #######,   ,#######,      ##                                
            ,#'     '#,  ##    ##  ,#'     '#,    #''#        ######   ,####,        
            ##       ##  ##   ,#'  ##            #'  '#       #        #'  '#        
            ##       ##  #######   ##           ,######,      #####,   #    #        
            '#,     ,#'  ##    ##  '#,     ,#' ,#      #,         ##   #,  ,#        
             '#######'   ##     ##  '#######'  #'      '#     #####' # '####'        



                  #######################################################
                  #                        -***-                        #
                  #          Department of theory and spectroscopy      #
                  #    Directorship and core code : Frank Neese         #
                  #        Max Planck Institute fuer Kohlenforschung    #
                  #                Kaiser Wilhelm Platz 1               #
                  #                 D-45470 Muelheim/Ruhr               #
                  #                      Germany                        #
                  #                                                     #
                  #                  All rights reserved                #
                  #                        -***-                        #
                  #######################################################


                         Program Version 5.0.3 -  RELEASE  -


 With contributions from (in alphabetic order):
   Daniel Aravena         : Magnetic Suceptibility
   Michael Atanasov       : Ab Initio Ligand Field Theory (pilot matlab implementation)
   Alexander A. Auer      : GIAO ZORA, VPT2 properties, NMR spectrum
   Ute Becker             : Parallelization
   Giovanni Bistoni       : ED, misc. LED, open-shell LED, HFLD
   Martin Brehm           : Molecular dynamics
   Dmytro Bykov           : SCF Hessian
   Vijay G. Chilkuri      : MRCI spin determinant printing, contributions to CSF-ICE
   Dipayan Datta          : RHF DLPNO-CCSD density
   Achintya Kumar Dutta   : EOM-CC, STEOM-CC
   Dmitry Ganyushin       : Spin-Orbit,Spin-Spin,Magnetic field MRCI
   Miquel Garcia          : C-PCM and meta-GGA Hessian, CC/C-PCM, Gaussian charge scheme
   Yang Guo               : DLPNO-NEVPT2, F12-NEVPT2, CIM, IAO-localization
   Andreas Hansen         : Spin unrestricted coupled pair/coupled cluster methods
   Benjamin Helmich-Paris : MC-RPA, TRAH-SCF, COSX integrals
   Lee Huntington         : MR-EOM, pCC
   Robert Izsak           : Overlap fitted RIJCOSX, COSX-SCS-MP3, EOM
   Marcus Kettner         : VPT2
   Christian Kollmar      : KDIIS, OOCD, Brueckner-CCSD(T), CCSD density, CASPT2, CASPT2-K
   Simone Kossmann        : Meta GGA functionals, TD-DFT gradient, OOMP2, MP2 Hessian
   Martin Krupicka        : Initial AUTO-CI
   Lucas Lang             : DCDCAS
   Marvin Lechner         : AUTO-CI (C++ implementation), FIC-MRCC
   Dagmar Lenk            : GEPOL surface, SMD
   Dimitrios Liakos       : Extrapolation schemes; Compound Job, initial MDCI parallelization
   Dimitrios Manganas     : Further ROCIS development; embedding schemes
   Dimitrios Pantazis     : SARC Basis sets
   Anastasios Papadopoulos: AUTO-CI, single reference methods and gradients
   Taras Petrenko         : DFT Hessian,TD-DFT gradient, ASA, ECA, R-Raman, ABS, FL, XAS/XES, NRVS
   Peter Pinski           : DLPNO-MP2, DLPNO-MP2 Gradient
   Christoph Reimann      : Effective Core Potentials
   Marius Retegan         : Local ZFS, SOC
   Christoph Riplinger    : Optimizer, TS searches, QM/MM, DLPNO-CCSD(T), (RO)-DLPNO pert. Triples
   Tobias Risthaus        : Range-separated hybrids, TD-DFT gradient, RPA, STAB
   Michael Roemelt        : Original ROCIS implementation
   Masaaki Saitow         : Open-shell DLPNO-CCSD energy and density
   Barbara Sandhoefer     : DKH picture change effects
   Avijit Sen             : IP-ROCIS
   Kantharuban Sivalingam : CASSCF convergence, NEVPT2, FIC-MRCI
   Bernardo de Souza      : ESD, SOC TD-DFT
   Georgi Stoychev        : AutoAux, RI-MP2 NMR, DLPNO-MP2 response
   Willem Van den Heuvel  : Paramagnetic NMR
   Boris Wezisla          : Elementary symmetry handling
   Frank Wennmohs         : Technical directorship


 We gratefully acknowledge several colleagues who have allowed us to
 interface, adapt or use parts of their codes:
   Stefan Grimme, W. Hujo, H. Kruse, P. Pracht,  : VdW corrections, initial TS optimization,
                  C. Bannwarth, S. Ehlert          DFT functionals, gCP, sTDA/sTD-DF
   Ed Valeev, F. Pavosevic, A. Kumar             : LibInt (2-el integral package), F12 methods
   Garnet Chan, S. Sharma, J. Yang, R. Olivares  : DMRG
   Ulf Ekstrom                                   : XCFun DFT Library
   Mihaly Kallay                                 : mrcc  (arbitrary order and MRCC methods)
   Jiri Pittner, Ondrej Demel                    : Mk-CCSD
   Frank Weinhold                                : gennbo (NPA and NBO analysis)
   Christopher J. Cramer and Donald G. Truhlar   : smd solvation model
   Lars Goerigk                                  : TD-DFT with DH, B97 family of functionals
   V. Asgeirsson, H. Jonsson                     : NEB implementation
   FAccTs GmbH                                   : IRC, NEB, NEB-TS, DLPNO-Multilevel, CI-OPT
                                                   MM, QMMM, 2- and 3-layer-ONIOM, Crystal-QMMM,
                                                   LR-CPCM, SF, NACMEs, symmetry and pop. for TD-DFT,
                                                   nearIR, NL-DFT gradient (VV10), updates on ESD,
                                                   ML-optimized integration grids
   S Lehtola, MJT Oliveira, MAL Marques          : LibXC Library
   Liviu Ungur et al                             : ANISO software


 Your calculation uses the libint2 library for the computation of 2-el integrals
 For citations please refer to: http://libint.valeyev.net

 Your ORCA version has been built with support for libXC version: 5.1.0
 For citations please refer to: https://tddft.org/programs/libxc/

 This ORCA versions uses:
   CBLAS   interface :  Fast vector & matrix operations
   LAPACKE interface :  Fast linear algebra routines
   SCALAPACK package :  Parallel linear algebra routines
   Shared memory     :  Shared parallel matrices
   BLAS/LAPACK       :  OpenBLAS 0.3.15  USE64BITINT DYNAMIC_ARCH NO_AFFINITY Zen SINGLE_THREADED
        Core in use  :  Zen
   Copyright (c) 2011-2014, The OpenBLAS Project


leaving
================================================================================

----- Orbital basis set information -----
================================================================================
                                        WARNINGS
                       Please study these warnings very carefully!
================================================================================


WARNING: Direct SCF is incompatible with Method<>HF and Method<>DFT
  ===> : conventional SCF is chosen

WARNING: The NDO methods need Guess=HUECKEL or Guess=HCORE or Guess=MOREAD
  ===> : Guess is set to Hueckel

WARNING: The NDO methods need %rel::SOCType==1
  ===> : %rel::SOCType is set to 1

WARNING: The NDO methods cannot have frozencore=1
  ===> : %method FrozenCore=0 end

WARNING: The NDO methods cannot be used with Shark
  ===> : Turning Shark off

WARNING: Geometry Optimization
  ===> : Switching off AutoStart
         For restart on a previous wavefunction, please use MOREAD
================================================================================
                                       INPUT FILE
================================================================================
NAME = calc.inp
|  1> !OPT AM1
|  2> *xyz 0 1
|  3> C    4.29180000   3.65880000   0.00000000
|  4> H    4.64850000   2.65000000   0.00000000
|  5> H    4.64850000   4.16320000   0.87070000
|  6> H    4.64850000   4.16320000  -0.87970000
|  7> H    3.22180000   3.65880000   0.00000000
|  8> *
|  9> %geom Scan
| 10> D 0 1 2 3 = 0.00, 10.00, 10
| 11> end
| 12> end
| 13> %MaxCore 2000
| 14> %pal
| 15> nprocs 1
| 16> endd                         ****END OF INPUT****
================================================================================

                       ******************************
                       *    Relaxed Surface Scan    *
                       ******************************

        Dihedral (  3,   2,   1,   0):   range=   0.00000000 ..  10.00000000  steps =   10

There is 1 parameter to be scanned.
There will be   10 constrained geometry optimizations.


         *************************************************************
         *               RELAXED SURFACE SCAN STEP   1               *
         *                                                           *
         *   Dihedral (  3,   2,   1,   0)  :   0.00000000           *
         *************************************************************

Geometry optimization settings:
Update method            Update   .... BFGS
Choice of coordinates    CoordSys .... Z-matrix Internals
Initial Hessian          InHess   .... Almoef's Model

Convergence Tolerances:
Energy Change            TolE     ....  5.0000e-06 Eh
Max. Gradient            TolMAXG  ....  3.0000e-04 Eh/bohr
RMS Gradient             TolRMSG  ....  1.0000e-04 Eh/bohr
Max. Displacement        TolMAXD  ....  4.0000e-03 bohr
RMS Displacement         TolRMSD  ....  2.0000e-03 bohr
Strict Convergence                ....  False
------------------------------------------------------------------------------
                        ORCA OPTIMIZATION COORDINATE SETUP
------------------------------------------------------------------------------

The optimization will be done in new redundant internal coordinates
Making redundant internal coordinates   ...  (new redundants) done
Evaluating the initial hessian          ...  (Almloef) done
Evaluating the coordinates              ...  done
Calculating the B-matrix                .... done
Calculating the G-matrix                .... done
Diagonalizing the G-matrix              .... done
Imposing constraints:
 Iter   0:  RMS(Cart)=    0.0239376837 RMS(Int)=    0.5454586744
 Iter   1:  RMS(Cart)=    0.0239376837 RMS(Int)=    0.4764111400
 Iter   2:  RMS(Cart)=    0.0239376837 RMS(Int)=    0.4099216821
 Iter   3:  RMS(Cart)=    0.0239376837 RMS(Int)=    0.3462454181
 Iter   4:  RMS(Cart)=    0.0239376837 RMS(Int)=    0.2855516869
 Iter   5:  RMS(Cart)=    0.0239376837 RMS(Int)=    0.2279307934
 Iter   6:  RMS(Cart)=    0.0239376837 RMS(Int)=    0.1734044649
 Iter   7:  RMS(Cart)=    0.0207545062 RMS(Int)=    0.1286080221
 Iter   8:  RMS(Cart)=    0.0153928908 RMS(Int)=    0.0968416133
 Iter   9:  RMS(Cart)=    0.0115908196 RMS(Int)=    0.0737227991
 Iter  10:  RMS(Cart)=    0.0088237652 RMS(Int)=    0.0565754512
 Iter  11:  RMS(Cart)=    0.0067714263 RMS(Int)=    0.0436772231
 Iter  12:  RMS(Cart)=    0.0052276578 RMS(Int)=    0.0338723627
 Iter  13:  RMS(Cart)=    0.0040541295 RMS(Int)=    0.0263591950
 Iter  14:  RMS(Cart)=    0.0031548904 RMS(Int)=    0.0205668196
 Iter  15:  RMS(Cart)=    0.0024616101 RMS(Int)=    0.0160800898
 Iter  16:  RMS(Cart)=    0.0019246005 RMS(Int)=    0.0125920632
 Iter  17:  RMS(Cart)=    0.0015071241 RMS(Int)=    0.0098727873
 Iter  18:  RMS(Cart)=    0.0011816583 RMS(Int)=    0.0077481766
 Iter  19:  RMS(Cart)=    0.0009273670 RMS(Int)=    0.0060853425
 Iter  20:  RMS(Cart)=    0.0007283450 RMS(Int)=    0.0047821763
 Iter  21:  RMS(Cart)=    0.0005723711 RMS(Int)=    0.0037598113
 Iter  22:  RMS(Cart)=    0.0004500059 RMS(Int)=    0.0029570820
 Iter  23:  RMS(Cart)=    0.0003539285 RMS(Int)=    0.0023263972
 Iter  24:  RMS(Cart)=    0.0002784428 RMS(Int)=    0.0018306324
 Iter  25:  RMS(Cart)=    0.0002191055 RMS(Int)=    0.0014407694
 Iter  26:  RMS(Cart)=    0.0001724434 RMS(Int)=    0.0011340904
 Iter  27:  RMS(Cart)=    0.0001357375 RMS(Int)=    0.0008927871
 Iter  28:  RMS(Cart)=    0.0001068563 RMS(Int)=    0.0007028865
 Iter  29:  RMS(Cart)=    0.0000841274 RMS(Int)=    0.0005534159
 Iter  30:  RMS(Cart)=    0.0000662375 RMS(Int)=    0.0004357536
 Iter  31:  RMS(Cart)=    0.0000521547 RMS(Int)=    0.0003431219
 Iter  32:  RMS(Cart)=    0.0000410677 RMS(Int)=    0.0002701905
 Iter  33:  RMS(Cart)=    0.0000323387 RMS(Int)=    0.0002127664
 Iter  34:  RMS(Cart)=    0.0000254657 RMS(Int)=    0.0001675501
 Iter  35:  RMS(Cart)=    0.0000200538 RMS(Int)=    0.0001319451
 Iter  36:  RMS(Cart)=    0.0000157923 RMS(Int)=    0.0001039076
 Iter  37:  RMS(Cart)=    0.0000124365 RMS(Int)=    0.0000818287
 Iter  38:  RMS(Cart)=    0.0000097939 RMS(Int)=    0.0000644418
 Iter  39:  RMS(Cart)=    0.0000077129 RMS(Int)=    0.0000507495
 Iter  40:  RMS(Cart)=    0.0000060741 RMS(Int)=    0.0000399667
 Iter  41:  RMS(Cart)=    0.0000047836 RMS(Int)=    0.0000314751
 Iter  42:  RMS(Cart)=    0.0000037672 RMS(Int)=    0.0000247877
 Iter  43:  RMS(Cart)=    0.0000029668 RMS(Int)=    0.0000195212
 Iter  44:  RMS(Cart)=    0.0000023365 RMS(Int)=    0.0000153737
 Iter  45:  RMS(Cart)=    0.0000018401 RMS(Int)=    0.0000121074
 Iter  46:  RMS(Cart)=    0.0000014491 RMS(Int)=    0.0000095350
 Iter  47:  RMS(Cart)=    0.0000011412 RMS(Int)=    0.0000075092
 Iter  48:  RMS(Cart)=    0.0000008988 RMS(Int)=    0.0000059138
 Iter  49:  RMS(Cart)=    0.0000007078 RMS(Int)=    0.0000046574
 Iter  50:  RMS(Cart)=    0.0000005574 RMS(Int)=    0.0000036679
 Iter  51:  RMS(Cart)=    0.0000004390 RMS(Int)=    0.0000028886
 Iter  52:  RMS(Cart)=    0.0000003457 RMS(Int)=    0.0000022749
 Iter  53:  RMS(Cart)=    0.0000002723 RMS(Int)=    0.0000017916
 Iter  54:  RMS(Cart)=    0.0000002144 RMS(Int)=    0.0000014109
 Iter  55:  RMS(Cart)=    0.0000001689 RMS(Int)=    0.0000011112
 Iter  56:  RMS(Cart)=    0.0000001330 RMS(Int)=    0.0000008751
 Iter  57:  RMS(Cart)=    0.0000001047 RMS(Int)=    0.0000006892
 Iter  58:  RMS(Cart)=    0.0000000825 RMS(Int)=    0.0000005428
 Iter  59:  RMS(Cart)=    0.0000000650 RMS(Int)=    0.0000004274
 Iter  60:  RMS(Cart)=    0.0000000512 RMS(Int)=    0.0000003366
 Iter  61:  RMS(Cart)=    0.0000000403 RMS(Int)=    0.0000002651
 Iter  62:  RMS(Cart)=    0.0000000317 RMS(Int)=    0.0000002088
 Iter  63:  RMS(Cart)=    0.0000000250 RMS(Int)=    0.0000001644
 Iter  64:  RMS(Cart)=    0.0000000197 RMS(Int)=    0.0000001295
 Iter  65:  RMS(Cart)=    0.0000000155 RMS(Int)=    0.0000001020
 Iter  66:  RMS(Cart)=    0.0000000122 RMS(Int)=    0.0000000803
CONVERGED
The first mode is                       ....    2
The number of degrees of freedom        ....    9
Storing new coordinates                 .... done

    -----------------------------------------------------------------
                    Redundant Internal Coordinates


    -----------------------------------------------------------------
         Definition                    Initial Value    Approx d2E/dq
    -----------------------------------------------------------------
      1. B(H   1,C   0)                  1.1908         0.387545   
      2. B(H   2,C   0)                  1.1886         0.390984   
      3. B(H   3,C   0)                  1.0795         0.380564   
      4. B(H   4,C   0)                  1.0717         0.387554   
      5. A(H   2,C   0,H   3)          132.9382         0.297222   
      6. A(H   1,C   0,H   4)           90.4707         0.297664   
      7. A(H   2,C   0,H   4)           90.4740         0.298082   
      8. A(H   3,C   0,H   4)           89.3054         0.296808   
      9. A(H   1,C   0,H   2)           94.3122         0.298081   
     10. A(H   1,C   0,H   3)          132.7496         0.296807   
     11. D(H   3,H   2,H   1,C   0)     -0.0000         0.001712 C 
    -----------------------------------------------------------------

Number of atoms                         .... 5
Number of degrees of freedom            .... 11

         *************************************************************
         *                GEOMETRY OPTIMIZATION CYCLE   1            *
         *************************************************************
---------------------------------
CARTESIAN COORDINATES (ANGSTROEM)
---------------------------------
  C      4.498518    3.719024   -0.104899
  H      4.553473    2.559159    0.159059
  H      4.553253    4.071415    1.028968
  H      4.425338    4.255280   -1.038882
  H      3.428518    3.689121   -0.053246

----------------------------
CARTESIAN COORDINATES (A.U.)
----------------------------
  NO LB      ZA    FRAG     MASS         X           Y           Z
   0 C     4.0000    0    12.011    8.500967    7.027938   -0.198230
   1 H     1.0000    0     1.008    8.604816    4.836109    0.300577
   2 H     1.0000    0     1.008    8.604401    7.693860    1.944468
   3 H     1.0000    0     1.008    8.362678    8.041314   -1.963202
   4 H     1.0000    0     1.008    6.478960    6.971429   -0.100621

--------------------------------
INTERNAL COORDINATES (ANGSTROEM)
--------------------------------
 C      0   0   0     0.000000000000     0.00000000     0.00000000
 H      1   0   0     1.070005761667     0.00000000     0.00000000
 H      1   2   0     1.067601395653   109.51505982     0.00000000
 H      1   2   3     1.074954110648   109.37622264   120.08276913
 H      1   2   3     1.070000000000   109.47300474   239.91392657

---------------------------
INTERNAL COORDINATES (A.U.)
---------------------------
 C      0   0   0     0.000000000000     0.00000000     0.00000000
 H      1   0   0     2.022017851268     0.00000000     0.00000000
 H      1   2   0     2.017474257976   109.51505982     0.00000000
 H      1   2   3     2.031368875658   109.37622264   120.08276913
 H      1   2   3     2.022006963296   109.47300474   239.91392657

----------------------------
SLATER BASIS SET DIM=   8
----------------------------
  0 C     2 shells
 l=0 nsto= 1
    2       1.808665000000        1.000000000000
 l=1 nsto= 1
    2       1.685116000000        1.000000000000
  1 H     1 shells
 l=0 nsto= 1
    1       1.188078000000        1.000000000000
  2 H     1 shells
 l=0 nsto= 1
    1       1.188078000000        1.000000000000
  3 H     1 shells
 l=0 nsto= 1
    1       1.188078000000        1.000000000000
  4 H     1 shells
 l=0 nsto= 1
    1       1.188078000000        1.000000000000
------------------------------------------------------------------------------
                           ORCA NDO INTEGRAL CALCULATION
------------------------------------------------------------------------------

--------------
NDO PARAMETERS
--------------

Gamma integral treatment              ... MOPAC
Nuclear repulsuion treatment          ... AM1-style
Interaction factors:
s-s (sigma) =    1.0000
s-p (sigma) =    1.0000
s-d (sigma) =    1.0000
p-p (sigma) =    1.0000  p-p(pi) =    1.0000
p-d (sigma) =    1.0000  p-d(pi) =    1.0000
d-d (sigma) =    1.0000  d-d(pi) =    1.0000 d-d (delta) =    1.0000

--------------------------
Parameters for Element H :
--------------------------
 One-electron parameters (in eV)
  U(s)  =   -11.396427 Beta(s) =     6.173787 Neff(s) =     1.000000
 One-center electron repulsion parameters (in eV)
  G(s,s)=    12.848000
--------------------------
Parameters for Element C :
--------------------------
 One-electron parameters (in eV)
  U(s)  =   -52.028658 Beta(s) =    15.715783 Neff(s) =     2.000000
  U(p)  =   -39.614239 Beta(p) =     7.719283 Neff(p) =     2.000000 
 One-center electron repulsion parameters (in eV)
  G(s,s)=    12.230000
  G(s,p)=    11.470000 G(p,p)  =    10.253300
 Slater-Condon parameters (in eV)
 F2(p,p)=     5.1667 G1(s,p)=    7.2900

 Number of atoms                    ....    5
 Number of basis functions          ....    8

 Overlap integrals                  .... done
 One electron matrix                .... done
 Nuclear repulsion                  .... done
 Integral list                      .... done
 Electron-electron repulsion        .... done
-------------------------------------------------------------------------------
                                 ORCA SCF
-------------------------------------------------------------------------------

------------
SCF SETTINGS
------------
Hamiltonian:
 ZDO-Hamiltonian        Method          .... NDDO


General Settings:
 Integral files         IntName         .... calc
 Hartree-Fock type      HFTyp           .... RHF
 Total Charge           Charge          ....    0
 Multiplicity           Mult            ....    1
 Number of Electrons    NEL             ....    8
 Basis Dimension        Dim             ....    8
 Nuclear Repulsion      ENuc            ....      7.3378252848 Eh

Convergence Acceleration:
 DIIS                   CNVDIIS         .... on
   Start iteration      DIISMaxIt       ....    12
   Startup error        DIISStart       ....  0.200000
   # of expansion vecs  DIISMaxEq       ....     5
   Bias factor          DIISBfac        ....   1.050
   Max. coefficient     DIISMaxC        ....  10.000
 Trust-Rad. Augm. Hess. CNVTRAH         .... off
 SOSCF                  CNVSOSCF        .... on
   Start iteration      SOSCFMaxIt      ....   150
   Startup grad/error   SOSCFStart      ....  0.003300
 Level Shifting         CNVShift        .... on
   Level shift para.    LevelShift      ....    0.2500
   Turn off err/grad.   ShiftErr        ....    0.0010
 Zerner damping         CNVZerner       .... off
 Static damping         CNVDamp         .... on
   Fraction old density DampFac         ....    0.7000
   Max. Damping (<1)    DampMax         ....    0.9800
   Min. Damping (>=0)   DampMin         ....    0.0000
   Turn off err/grad.   DampErr         ....    0.1000
 Fernandez-Rico         CNVRico         .... off

SCF Procedure:
 Maximum # iterations   MaxIter         ....   125
 SCF integral mode      SCFMode         .... Conventional
 Integral Buffer length BufferLength    .... 1048576
 Integral index format  IndFormat       ....     0
 Integral value format  ValFormat       ....     0
 Integral Storage       Thresh          ....  2.500e-11 Eh

Convergence Tolerance:
 Convergence Check Mode ConvCheckMode   .... Total+1el-Energy
 Convergence forced     ConvForced      .... 0
 Energy Change          TolE            ....  1.000e-08 Eh
 1-El. energy change                    ....  1.000e-05 Eh
 Orbital Gradient       TolG            ....  1.000e-05
 Orbital Rotation angle TolX            ....  1.000e-05
 DIIS Error             TolErr          ....  5.000e-07


Diagonalization of the overlap matrix:
Smallest eigenvalue                        ... 2.738e-01
Time for diagonalization                   ...    0.000 sec
Threshold for overlap eigenvalues          ... 1.000e-08
Number of eigenvalues below threshold      ... 0
Time for construction of square roots      ...    0.000 sec
Total time needed                          ...    0.000 sec

-------------------------------
INITIAL GUESS: EXTENDED HUECKEL
-------------------------------
EHT matrix was read from disk
EHT matrix was diagonalized
Initial density was built
                      ------------------
                      INITIAL GUESS DONE
                      ------------------

 InCore treatment chosen:
   Memory dedicated               ...    2000 MB
   Memory needed                  ...      0 MB
   Number of tiny    integrals    ...       0
   Number of small   integrals    ...       0
   Number of regular integrals    ...      66

--------------
SCF ITERATIONS
--------------
ITER       Energy         Delta-E        Max-DP      RMS-DP      [F,P]     Damp
  0     -6.6489188363   0.000000000000 0.02337041  0.00654406  0.0602431 0.7000
  1     -6.6524600262  -0.003541189920 0.02529509  0.00685243  0.0529167 0.7000
                               ***Turning on DIIS***
  2     -6.6557192178  -0.003259191668 0.07551608  0.02004108  0.0450304 0.0000
  3     -6.6482366068   0.007482611016 0.04109115  0.01030094  0.0215627 0.0000
  4     -6.6598276358  -0.011591028970 0.01854412  0.00446062  0.0090043 0.0000
  5     -6.6648583575  -0.005030721685 0.00808435  0.00189874  0.0034993 0.0000
                      *** Initiating the SOSCF procedure ***
                           *** Shutting down DIIS ***
                      *** Re-Reading the Fockian *** 
                      *** Removing any level shift *** 
ITER      Energy       Delta-E        Grad      Rot      Max-DP    RMS-DP
  6     -6.66725306  -0.0023946977  0.001380  0.001380  0.002924  0.000677
  7     -6.66846097  -0.0012079107  0.000304  0.000508  0.000804  0.000189
  8     -6.66846168  -0.0000007166  0.000132  0.000409  0.000660  0.000160
  9     -6.66846188  -0.0000001935  0.000007  0.000014  0.000026  0.000007
                 **** Energy Check signals convergence ****
              ***Rediagonalizing the Fockian in SOSCF/NRSCF***

               *****************************************************
               *                     SUCCESS                       *
               *           SCF CONVERGED AFTER  10 CYCLES          *
               *****************************************************


----------------
TOTAL SCF ENERGY
----------------

Total Energy       :           -6.66846188 Eh            -181.45807 eV

Components:
Nuclear Repulsion  :            7.33782528 Eh             199.67238 eV
Electronic Energy  :          -14.00628716 Eh            -381.13045 eV
One Electron Energy:          -23.05463438 Eh            -627.34850 eV
Two Electron Energy:            9.04834722 Eh             246.21805 eV


---------------
SCF CONVERGENCE
---------------

  Last Energy change         ...   -1.1924e-09  Tolerance :   1.0000e-08
  Last MAX-Density change    ...    1.6297e-05  Tolerance :   1.0000e-07
  Last RMS-Density change    ...    4.7610e-06  Tolerance :   5.0000e-09
  Last Orbital Gradient      ...    3.3024e-06  Tolerance :   1.0000e-05
  Last Orbital Rotation      ...    9.3153e-06  Tolerance :   1.0000e-05

             **** THE GBW FILE WAS UPDATED (calc.gbw) ****
             **** DENSITY calc.scfp WAS UPDATED ****
             **** ENERGY FILE WAS UPDATED (calc.en.tmp) ****
             **** THE GBW FILE WAS UPDATED (calc.gbw) ****
             **** DENSITY calc.scfp WAS UPDATED ****
----------------
ORBITAL ENERGIES
----------------

  NO   OCC          E(Eh)            E(eV) 
   0   2.0000      -1.059729       -28.8367 
   1   2.0000      -0.530309       -14.4304 
   2   2.0000      -0.452873       -12.3233 
   3   2.0000      -0.436058       -11.8657 
   4   0.0000       0.120000         3.2654 
   5   0.0000       0.145594         3.9618 
   6   0.0000       0.193513         5.2658 
   7   0.0000       0.196768         5.3543 

                    ********************************
                    * MULLIKEN POPULATION ANALYSIS *
                    ********************************

-----------------------
MULLIKEN ATOMIC CHARGES
-----------------------
   0 C :   -0.455092
   1 H :    0.116601
   2 H :    0.117301
   3 H :    0.190150
   4 H :    0.031039
Sum of atomic charges:    0.0000000

--------------------------------
MULLIKEN REDUCED ORBITAL CHARGES
--------------------------------
  0 C s       :     1.509080  s :     1.509080
      pz      :     0.955425  p :     2.946012
      px      :     1.007221
      py      :     0.983365
  1 H s       :     0.883399  s :     0.883399
  2 H s       :     0.882699  s :     0.882699
  3 H s       :     0.809850  s :     0.809850
  4 H s       :     0.968961  s :     0.968961


                     *******************************
                     * LOEWDIN POPULATION ANALYSIS *
                     *******************************

----------------------
LOEWDIN ATOMIC CHARGES
----------------------
   0 C :   -0.307411
   1 H :    0.083591
   2 H :    0.084039
   3 H :    0.135753
   4 H :    0.004029

-------------------------------
LOEWDIN REDUCED ORBITAL CHARGES
-------------------------------
  0 C s       :     1.251262  s :     1.251262
      pz      :     0.988044  p :     3.056149
      px      :     1.053366
      py      :     1.014739
  1 H s       :     0.916409  s :     0.916409
  2 H s       :     0.915961  s :     0.915961
  3 H s       :     0.864247  s :     0.864247
  4 H s       :     0.995971  s :     0.995971


                      *****************************
                      * MAYER POPULATION ANALYSIS *
                      *****************************

  NA   - Mulliken gross atomic population
  ZA   - Total nuclear charge
  QA   - Mulliken gross atomic charge
  VA   - Mayer's total valence
  BVA  - Mayer's bonded valence
  FA   - Mayer's free valence

  ATOM       NA         ZA         QA         VA         BVA        FA
  0 C      6.7252     4.0000    -2.7252     1.8568    10.6118    -8.7551
  1 H      1.4670     1.0000    -0.4670     0.7820     2.7042    -1.9222
  2 H      1.4678     1.0000    -0.4678     0.7812     2.7089    -1.9278
  3 H      1.4850     1.0000    -0.4850     0.7648     2.8759    -2.1111
  4 H      1.6298     1.0000    -0.6298     0.6033     3.3457    -2.7423

  Mayer bond orders larger than 0.100000
B(  0-C ,  1-H ) :   2.5122 B(  0-C ,  2-H ) :   2.5164 B(  0-C ,  3-H ) :   2.6948 
B(  0-C ,  4-H ) :   2.8885 B(  1-H ,  4-H ) :   0.1376 B(  2-H ,  4-H ) :   0.1382 
B(  3-H ,  4-H ) :   0.1814 

-------
TIMINGS
-------

Total SCF time: 0 days 0 hours 0 min 0 sec 

Total time                  ....       0.100 sec
Sum of individual times     ....       0.009 sec  (  8.6%)

Fock matrix formation       ....       0.007 sec  (  7.4%)
Diagonalization             ....       0.000 sec  (  0.3%)
Density matrix formation    ....       0.000 sec  (  0.0%)
Population analysis         ....       0.000 sec  (  0.4%)
Initial guess               ....       0.000 sec  (  0.0%)
Orbital Transformation      ....       0.000 sec  (  0.0%)
Orbital Orthonormalization  ....       0.000 sec  (  0.0%)
DIIS solution               ....       0.000 sec  (  0.3%)
SOSCF solution              ....       0.000 sec  (  0.2%)

Maximum memory used throughout the entire SCF-calculation: 222.8 MB

-------------------------   --------------------
FINAL SINGLE POINT ENERGY        -6.668461877245
-------------------------   --------------------

------------------------------------------------------------------------------
                          SCF GRADIENT FOR NDO METHODS
------------------------------------------------------------------------------

The cartesian gradient:
   1   C   :    0.045078845    0.052047509   -0.088862726
   2   H   :   -0.029709182   -0.031816994    0.034285199
   3   H   :   -0.029919885   -0.014072730    0.043936528
   4   H   :   -0.047300829   -0.007391617    0.012740490
   5   H   :    0.061851050    0.001233832   -0.002099492

Norm of the cartesian gradient     ...    0.158169301
RMS gradient                       ...    0.040839138
MAX gradient                       ...    0.088862726
------------------------------------------------------------------------------
                         ORCA GEOMETRY RELAXATION STEP
------------------------------------------------------------------------------

Reading the OPT-File                    .... done
Getting information on internals        .... done
Copying old internal coords+grads       .... done
Making the new internal coordinates     .... (new redundants).... done
Validating the new internal coordinates .... (new redundants).... done
Calculating the B-matrix                .... done
Calculating the G,G- and P matrices     .... done
Transforming gradient to internals      .... done
Projecting the internal gradient        .... done
Number of atoms                         ....   5
Number of internal coordinates          ....  11
Current Energy                          ....    -6.668461877 Eh
Current gradient norm                   ....     0.158169301 Eh/bohr
Maximum allowed component of the step   ....  0.300
Current trust radius                    ....  0.300
Evaluating the initial hessian          ....  (Almloef) done
Projecting the Hessian                  .... done
Forming the augmented Hessian           .... done
Diagonalizing the augmented Hessian     .... done
Last element of RFO vector              ....  0.960790914
Lowest eigenvalues of augmented Hessian:
 -0.026553558  0.249536652  0.255329079  0.275486151  0.276426529
Length of the computed step             ....  0.288589228
The final length of the internal step   ....  0.288589228
Converting the step to cartesian space:
 Initial RMS(Int)=    0.0870129262
Transforming coordinates:
 Iter   0:  RMS(Cart)=    0.0609066531 RMS(Int)=    0.0872851190
 Iter   1:  RMS(Cart)=    0.0037989136 RMS(Int)=    0.0039328649
 Iter   2:  RMS(Cart)=    0.0002241144 RMS(Int)=    0.0002693359
 Iter   3:  RMS(Cart)=    0.0000103101 RMS(Int)=    0.0000131763
 Iter   4:  RMS(Cart)=    0.0000012939 RMS(Int)=    0.0000013637
 Iter   5:  RMS(Cart)=    0.0000000614 RMS(Int)=    0.0000000751
Imposing constraints:
 Iter   0:  RMS(Cart)=    0.0000189163 RMS(Int)=    0.0000588309
 Iter   1:  RMS(Cart)=    0.0000102175 RMS(Int)=    0.0000317770
 Iter   2:  RMS(Cart)=    0.0000055189 RMS(Int)=    0.0000171640
 Iter   3:  RMS(Cart)=    0.0000029810 RMS(Int)=    0.0000092710
 Iter   4:  RMS(Cart)=    0.0000016101 RMS(Int)=    0.0000050077
 Iter   5:  RMS(Cart)=    0.0000008697 RMS(Int)=    0.0000027048
 Iter   6:  RMS(Cart)=    0.0000004698 RMS(Int)=    0.0000014610
 Iter   7:  RMS(Cart)=    0.0000002537 RMS(Int)=    0.0000007891
 Iter   8:  RMS(Cart)=    0.0000001371 RMS(Int)=    0.0000004263
 Iter   9:  RMS(Cart)=    0.0000000740 RMS(Int)=    0.0000002302
 Iter  10:  RMS(Cart)=    0.0000000400 RMS(Int)=    0.0000001244
 Iter  11:  RMS(Cart)=    0.0000000216 RMS(Int)=    0.0000000672
CONVERGED
done
Storing new coordinates                 .... done

                                .--------------------.
          ----------------------|Geometry convergence|-------------------------
          Item                value                   Tolerance       Converged
          ---------------------------------------------------------------------
          RMS gradient        0.0282018907            0.0001000000      NO
          MAX gradient        0.0618907776            0.0003000000      NO
          RMS step            0.0870129262            0.0020000000      NO
          MAX step            0.1503128594            0.0040000000      NO
          ........................................................
          Max(Bonds)      0.0795      Max(Angles)    7.30
          Max(Dihed)        0.00      Max(Improp)    0.00
          ---------------------------------------------------------------------

The optimization has not yet converged - more geometry cycles are needed


    ---------------------------------------------------------------------------
                         Redundant Internal Coordinates
                            (Angstroem and degrees)

        Definition                    Value    dE/dq     Step     New-Value
    ----------------------------------------------------------------------------
     1. B(H   1,C   0)                1.1908  0.037220 -0.0716    1.1192   
     2. B(H   2,C   0)                1.1886  0.036363 -0.0694    1.1192   
     3. B(H   3,C   0)                1.0795 -0.011489  0.0152    1.0946   
     4. B(H   4,C   0)                1.0717 -0.061891  0.0795    1.1512   
     5. A(H   2,C   0,H   3)          132.94  0.018791   -3.66    129.28   
     6. A(H   1,C   0,H   4)           90.47 -0.044095    0.11     90.58   
     7. A(H   2,C   0,H   4)           90.47 -0.044264    0.12     90.59   
     8. A(H   3,C   0,H   4)           89.31 -0.058032   -0.22     89.09   
     9. A(H   1,C   0,H   2)           94.31 -0.037465    7.30    101.61   
    10. A(H   1,C   0,H   3)          132.75  0.018675   -3.64    129.11   
    11. D(H   3,H   2,H   1,C   0)     -0.00  0.070450    0.00     -0.00 C 
    ----------------------------------------------------------------------------

         *************************************************************
         *                GEOMETRY OPTIMIZATION CYCLE   2            *
         *************************************************************
---------------------------------
CARTESIAN COORDINATES (ANGSTROEM)
---------------------------------
  C      4.518576    3.695132   -0.064204
  H      4.555323    2.590911    0.114729
  H      4.555552    4.094051    0.980845
  H      4.461527    4.239491   -1.012170
  H      3.368121    3.674414   -0.028201

----------------------------
CARTESIAN COORDINATES (A.U.)
----------------------------
  NO LB      ZA    FRAG     MASS         X           Y           Z
   0 C     4.0000    0    12.011    8.538872    6.982787   -0.121328
   1 H     1.0000    0     1.008    8.608314    4.896113    0.216807
   2 H     1.0000    0     1.008    8.608747    7.736635    1.853529
   3 H     1.0000    0     1.008    8.431065    8.011478   -1.912724
   4 H     1.0000    0     1.008    6.364825    6.943637   -0.053292

--------------------------------
INTERNAL COORDINATES (ANGSTROEM)
--------------------------------
 C      0   0   0     0.000000000000     0.00000000     0.00000000
 H      1   0   0     1.119227569452     0.00000000     0.00000000
 H      1   2   0     1.119210542144   101.61218817     0.00000000
 H      1   2   3     1.094632582876   129.10868000   179.99999186
 H      1   2   3     1.151205435928    90.57618341   269.28325609

---------------------------
INTERNAL COORDINATES (A.U.)
---------------------------
 C      0   0   0     0.000000000000     0.00000000     0.00000000
 H      1   0   0     2.115033587799     0.00000000     0.00000000
 H      1   2   0     2.115001410849   101.61218817     0.00000000
 H      1   2   3     2.068555798902   129.10868000   179.99999186
 H      1   2   3     2.175462997785    90.57618341   269.28325609

------------------------------------------------------------------------------
                           ORCA NDO INTEGRAL CALCULATION
------------------------------------------------------------------------------

--------------
NDO PARAMETERS
--------------

Gamma integral treatment              ... MOPAC
Nuclear repulsuion treatment          ... AM1-style
Interaction factors:
s-s (sigma) =    1.0000
s-p (sigma) =    1.0000
s-d (sigma) =    1.0000
p-p (sigma) =    1.0000  p-p(pi) =    1.0000
p-d (sigma) =    1.0000  p-d(pi) =    1.0000
d-d (sigma) =    1.0000  d-d(pi) =    1.0000 d-d (delta) =    1.0000

--------------------------
Parameters for Element H :
--------------------------
 One-electron parameters (in eV)
  U(s)  =   -11.396427 Beta(s) =     6.173787 Neff(s) =     1.000000
 One-center electron repulsion parameters (in eV)
  G(s,s)=    12.848000
--------------------------
Parameters for Element C :
--------------------------
 One-electron parameters (in eV)
  U(s)  =   -52.028658 Beta(s) =    15.715783 Neff(s) =     2.000000
  U(p)  =   -39.614239 Beta(p) =     7.719283 Neff(p) =     2.000000 
 One-center electron repulsion parameters (in eV)
  G(s,s)=    12.230000
  G(s,p)=    11.470000 G(p,p)  =    10.253300
 Slater-Condon parameters (in eV)
 F2(p,p)=     5.1667 G1(s,p)=    7.2900

 Number of atoms                    ....    5
 Number of basis functions          ....    8

 Overlap integrals                  .... done
 One electron matrix                .... done
 Nuclear repulsion                  .... done
 Integral list                      .... done
 Electron-electron repulsion        .... done

Diagonalization of the overlap matrix:
Smallest eigenvalue                        ... 2.870e-01
Time for diagonalization                   ...    0.000 sec
Threshold for overlap eigenvalues          ... 1.000e-08
Number of eigenvalues below threshold      ... 0
Time for construction of square roots      ...    0.000 sec
Total time needed                          ...    0.000 sec


 InCore treatment chosen:
   Memory dedicated               ...    2000 MB
   Memory needed                  ...      0 MB
   Number of tiny    integrals    ...       0
   Number of small   integrals    ...       0
   Number of regular integrals    ...      66

--------------
SCF ITERATIONS
--------------
ITER       Energy         Delta-E        Max-DP      RMS-DP      [F,P]     Damp
  0     -6.6844428104   0.000000000000 0.00493372  0.00131833  0.0231000 0.7000
  1     -6.6847680676  -0.000325257225 0.00484366  0.00128913  0.0191061 0.7000
                               ***Turning on DIIS***
  2     -6.6850465633  -0.000278495652 0.01352314  0.00358896  0.0152969 0.0000
  3     -6.6861599349  -0.001113371593 0.00516564  0.00137955  0.0049166 0.0000
                      *** Initiating the SOSCF procedure ***
                           *** Shutting down DIIS ***
                      *** Re-Reading the Fockian *** 
                      *** Removing any level shift *** 
ITER      Energy       Delta-E        Grad      Rot      Max-DP    RMS-DP
  4     -6.68599005   0.0001698819  0.001088  0.001088  0.001847  0.000572
  5     -6.68596142   0.0000286322  0.000438  0.000698  0.000779  0.000288
  6     -6.68596394  -0.0000025216  0.000219  0.000661  0.000841  0.000263
  7     -6.68596467  -0.0000007261  0.000015  0.000026  0.000076  0.000015
                 **** Energy Check signals convergence ****
              ***Rediagonalizing the Fockian in SOSCF/NRSCF***

               *****************************************************
               *                     SUCCESS                       *
               *           SCF CONVERGED AFTER   8 CYCLES          *
               *****************************************************

Total Energy       :           -6.68596467 Eh            -181.93435 eV
  Last Energy change         ...   -4.4319e-09  Tolerance :   1.0000e-08
  Last MAX-Density change    ...    5.3655e-05  Tolerance :   1.0000e-07
             **** THE GBW FILE WAS UPDATED (calc.gbw) ****
             **** DENSITY calc.scfp WAS UPDATED ****
             **** ENERGY FILE WAS UPDATED (calc.en.tmp) ****
             **** THE GBW FILE WAS UPDATED (calc.gbw) ****
             **** DENSITY calc.scfp WAS UPDATED ****
Total SCF time: 0 days 0 hours 0 min 0 sec 

Maximum memory used throughout the entire SCF-calculation: 222.8 MB

-------------------------   --------------------
FINAL SINGLE POINT ENERGY        -6.685964672888
-------------------------   --------------------

------------------------------------------------------------------------------
                          SCF GRADIENT FOR NDO METHODS
------------------------------------------------------------------------------

The cartesian gradient:
   1   C   :    0.094060161    0.021918440   -0.037777212
   2   H   :   -0.032877131   -0.000275071    0.021969114
   3   H   :   -0.032904063   -0.018928693    0.011351639
   4   H   :   -0.041887651   -0.002120049    0.003499808
   5   H   :    0.013608684   -0.000594626    0.000956651

Norm of the cartesian gradient     ...    0.125881250
RMS gradient                       ...    0.032502399
MAX gradient                       ...    0.094060161
------------------------------------------------------------------------------
                         ORCA GEOMETRY RELAXATION STEP
------------------------------------------------------------------------------

Reading the OPT-File                    .... done
Getting information on internals        .... done
Copying old internal coords+grads       .... done
Making the new internal coordinates     .... (new redundants).... done
Validating the new internal coordinates .... (new redundants).... done
Calculating the B-matrix                .... done
Calculating the G,G- and P matrices     .... done
Transforming gradient to internals      .... done
Projecting the internal gradient        .... done
Number of atoms                         ....   5
Number of internal coordinates          ....  11
Current Energy                          ....    -6.685964673 Eh
Current gradient norm                   ....     0.125881250 Eh/bohr
Maximum allowed component of the step   ....  0.300
Current trust radius                    ....  0.300
Updating the Hessian (BFGS)             .... done
Forming the augmented Hessian           .... done
Diagonalizing the augmented Hessian     .... done
Last element of RFO vector              ....  0.976245191
Lowest eigenvalues of augmented Hessian:
 -0.008380376  0.167072740  0.249670138  0.276413469  0.277632120
Length of the computed step             ....  0.221940865
The final length of the internal step   ....  0.221940865
Converting the step to cartesian space:
 Initial RMS(Int)=    0.0669176887
Transforming coordinates:
 Iter   0:  RMS(Cart)=    0.0539175870 RMS(Int)=    0.0670767456
 Iter   1:  RMS(Cart)=    0.0028059383 RMS(Int)=    0.0034196109
 Iter   2:  RMS(Cart)=    0.0002054513 RMS(Int)=    0.0002377127
 Iter   3:  RMS(Cart)=    0.0000208564 RMS(Int)=    0.0000245293
 Iter   4:  RMS(Cart)=    0.0000013493 RMS(Int)=    0.0000016792
 Iter   5:  RMS(Cart)=    0.0000001512 RMS(Int)=    0.0000001750
 Iter   6:  RMS(Cart)=    0.0000000095 RMS(Int)=    0.0000000121
Imposing constraints:
 Iter   0:  RMS(Cart)=    0.0001378258 RMS(Int)=    0.0003917917
 Iter   1:  RMS(Cart)=    0.0000671201 RMS(Int)=    0.0001908009
 Iter   2:  RMS(Cart)=    0.0000326872 RMS(Int)=    0.0000929196
 Iter   3:  RMS(Cart)=    0.0000159186 RMS(Int)=    0.0000452517
 Iter   4:  RMS(Cart)=    0.0000077523 RMS(Int)=    0.0000220375
 Iter   5:  RMS(Cart)=    0.0000037754 RMS(Int)=    0.0000107323
 Iter   6:  RMS(Cart)=    0.0000018386 RMS(Int)=    0.0000052266
 Iter   7:  RMS(Cart)=    0.0000008954 RMS(Int)=    0.0000025453
 Iter   8:  RMS(Cart)=    0.0000004361 RMS(Int)=    0.0000012396
 Iter   9:  RMS(Cart)=    0.0000002124 RMS(Int)=    0.0000006037
 Iter  10:  RMS(Cart)=    0.0000001034 RMS(Int)=    0.0000002940
 Iter  11:  RMS(Cart)=    0.0000000504 RMS(Int)=    0.0000001432
 Iter  12:  RMS(Cart)=    0.0000000245 RMS(Int)=    0.0000000697
CONVERGED
done
Storing new coordinates                 .... done

                                .--------------------.
          ----------------------|Geometry convergence|-------------------------
          Item                value                   Tolerance       Converged
          ---------------------------------------------------------------------
          Energy change      -0.0175027956            0.0000050000      NO
          RMS gradient        0.0114553920            0.0001000000      NO
          MAX gradient        0.0286836041            0.0003000000      NO
          RMS step            0.0669176887            0.0020000000      NO
          MAX step            0.1668511303            0.0040000000      NO
          ........................................................
          Max(Bonds)      0.0378      Max(Angles)    9.56
          Max(Dihed)        0.00      Max(Improp)    0.00
          ---------------------------------------------------------------------

The optimization has not yet converged - more geometry cycles are needed


    ---------------------------------------------------------------------------
                         Redundant Internal Coordinates
                            (Angstroem and degrees)

        Definition                    Value    dE/dq     Step     New-Value
    ----------------------------------------------------------------------------
     1. B(H   1,C   0)                1.1192  0.002704 -0.0172    1.1020   
     2. B(H   2,C   0)                1.1192  0.002766 -0.0171    1.1021   
     3. B(H   3,C   0)                1.0946 -0.001902  0.0060    1.1006   
     4. B(H   4,C   0)                1.1512 -0.013559  0.0378    1.1890   
     5. A(H   2,C   0,H   3)          129.28  0.014600   -4.81    124.47   
     6. A(H   1,C   0,H   4)           90.58 -0.039622    0.36     90.94   
     7. A(H   2,C   0,H   4)           90.59 -0.039606    0.33     90.92   
     8. A(H   3,C   0,H   4)           89.08 -0.046550   -0.58     88.50   
     9. A(H   1,C   0,H   2)          101.61 -0.029003    9.56    111.17   
    10. A(H   1,C   0,H   3)          129.11  0.014403   -4.75    124.36   
    11. D(H   3,H   2,H   1,C   0)     -0.00  0.066535    0.00     -0.00 C 
    ----------------------------------------------------------------------------

         *************************************************************
         *                GEOMETRY OPTIMIZATION CYCLE   3            *
         *************************************************************
---------------------------------
CARTESIAN COORDINATES (ANGSTROEM)
---------------------------------
  C      4.528352    3.675211   -0.030020
  H      4.554803    2.576826    0.055417
  H      4.554912    4.152459    0.963072
  H      4.481518    4.223101   -0.983408
  H      3.339516    3.666403   -0.014062

----------------------------
CARTESIAN COORDINATES (A.U.)
----------------------------
  NO LB      ZA    FRAG     MASS         X           Y           Z
   0 C     4.0000    0    12.011    8.557345    6.945143   -0.056729
   1 H     1.0000    0     1.008    8.607330    4.869496    0.104724
   2 H     1.0000    0     1.008    8.607535    7.847010    1.819943
   3 H     1.0000    0     1.008    8.468842    7.980505   -1.858372
   4 H     1.0000    0     1.008    6.310770    6.928497   -0.026573

--------------------------------
INTERNAL COORDINATES (ANGSTROEM)
--------------------------------
 C      0   0   0     0.000000000000     0.00000000     0.00000000
 H      1   0   0     1.102020454746     0.00000000     0.00000000
 H      1   2   0     1.102135029421   111.17127742     0.00000000
 H      1   2   3     1.100602744231   124.35687713   179.99999251
 H      1   2   3     1.188976343648    90.89237490   268.71958518

---------------------------
INTERNAL COORDINATES (A.U.)
---------------------------
 C      0   0   0     0.000000000000     0.00000000     0.00000000
 H      1   0   0     2.082516853450     0.00000000     0.00000000
 H      1   2   0     2.082733368207   111.17127742     0.00000000
 H      1   2   3     2.079837768839   124.35687713   179.99999251
 H      1   2   3     2.246839669205    90.89237490   268.71958518

------------------------------------------------------------------------------
                           ORCA NDO INTEGRAL CALCULATION
------------------------------------------------------------------------------

--------------
NDO PARAMETERS
--------------

Gamma integral treatment              ... MOPAC
Nuclear repulsuion treatment          ... AM1-style
Interaction factors:
s-s (sigma) =    1.0000
s-p (sigma) =    1.0000
s-d (sigma) =    1.0000
p-p (sigma) =    1.0000  p-p(pi) =    1.0000
p-d (sigma) =    1.0000  p-d(pi) =    1.0000
d-d (sigma) =    1.0000  d-d(pi) =    1.0000 d-d (delta) =    1.0000

--------------------------
Parameters for Element H :
--------------------------
 One-electron parameters (in eV)
  U(s)  =   -11.396427 Beta(s) =     6.173787 Neff(s) =     1.000000
 One-center electron repulsion parameters (in eV)
  G(s,s)=    12.848000
--------------------------
Parameters for Element C :
--------------------------
 One-electron parameters (in eV)
  U(s)  =   -52.028658 Beta(s) =    15.715783 Neff(s) =     2.000000
  U(p)  =   -39.614239 Beta(p) =     7.719283 Neff(p) =     2.000000 
 One-center electron repulsion parameters (in eV)
  G(s,s)=    12.230000
  G(s,p)=    11.470000 G(p,p)  =    10.253300
 Slater-Condon parameters (in eV)
 F2(p,p)=     5.1667 G1(s,p)=    7.2900

 Number of atoms                    ....    5
 Number of basis functions          ....    8

 Overlap integrals                  .... done
 One electron matrix                .... done
 Nuclear repulsion                  .... done
 Integral list                      .... done
 Electron-electron repulsion        .... done

Diagonalization of the overlap matrix:
Smallest eigenvalue                        ... 2.884e-01
Time for diagonalization                   ...    0.000 sec
Threshold for overlap eigenvalues          ... 1.000e-08
Number of eigenvalues below threshold      ... 0
Time for construction of square roots      ...    0.000 sec
Total time needed                          ...    0.000 sec


 InCore treatment chosen:
   Memory dedicated               ...    2000 MB
   Memory needed                  ...      0 MB
   Number of tiny    integrals    ...       0
   Number of small   integrals    ...       0
   Number of regular integrals    ...      66

--------------
SCF ITERATIONS
--------------
ITER       Energy         Delta-E        Max-DP      RMS-DP      [F,P]     Damp
  0     -6.6907927366   0.000000000000 0.00262308  0.00089177  0.0128083 0.7000
                      *** Initiating the SOSCF procedure ***
                      *** Re-Reading the Fockian *** 
                      *** Removing any level shift *** 
ITER      Energy       Delta-E        Grad      Rot      Max-DP    RMS-DP
  1     -6.69092199  -0.0001292487  0.002538  0.002538  0.008857  0.003051
  2     -6.69137026  -0.0004482712  0.002859  0.004040  0.004522  0.001499
  3     -6.69144539  -0.0000751321  0.001110  0.002626  0.003218  0.001030
  4     -6.69145986  -0.0000144667  0.000127  0.000141  0.000311  0.000076
  5     -6.69146000  -0.0000001463  0.000043  0.000091  0.000165  0.000046
  6     -6.69146003  -0.0000000257  0.000005  0.000009  0.000018  0.000004
                 **** Energy Check signals convergence ****
              ***Rediagonalizing the Fockian in SOSCF/NRSCF***

               *****************************************************
               *                     SUCCESS                       *
               *           SCF CONVERGED AFTER   7 CYCLES          *
               *****************************************************

Total Energy       :           -6.69146003 Eh            -182.08388 eV
  Last Energy change         ...   -3.7599e-10  Tolerance :   1.0000e-08
  Last MAX-Density change    ...    9.4705e-06  Tolerance :   1.0000e-07
             **** THE GBW FILE WAS UPDATED (calc.gbw) ****
             **** DENSITY calc.scfp WAS UPDATED ****
             **** ENERGY FILE WAS UPDATED (calc.en.tmp) ****
             **** THE GBW FILE WAS UPDATED (calc.gbw) ****
             **** DENSITY calc.scfp WAS UPDATED ****
Total SCF time: 0 days 0 hours 0 min 0 sec 

Maximum memory used throughout the entire SCF-calculation: 222.8 MB

-------------------------   --------------------
FINAL SINGLE POINT ENERGY        -6.691460027756
-------------------------   --------------------

------------------------------------------------------------------------------
                          SCF GRADIENT FOR NDO METHODS
------------------------------------------------------------------------------

The cartesian gradient:
   1   C   :    0.110588444    0.007714541   -0.013386061
   2   H   :   -0.033284312    0.004173167    0.010391753
   3   H   :   -0.033325838   -0.011091262    0.001739329
   4   H   :   -0.038925399   -0.001217096    0.001979937
   5   H   :   -0.005052895    0.000420649   -0.000724957

Norm of the cartesian gradient     ...    0.128394818
RMS gradient                       ...    0.033151399
MAX gradient                       ...    0.110588444
------------------------------------------------------------------------------
                         ORCA GEOMETRY RELAXATION STEP
------------------------------------------------------------------------------

Reading the OPT-File                    .... done
Getting information on internals        .... done
Copying old internal coords+grads       .... done
Making the new internal coordinates     .... (new redundants).... done
Validating the new internal coordinates .... (new redundants).... done
Calculating the B-matrix                .... done
Calculating the G,G- and P matrices     .... done
Transforming gradient to internals      .... done
Projecting the internal gradient        .... done
Number of atoms                         ....   5
Number of internal coordinates          ....  11
Current Energy                          ....    -6.691460028 Eh
Current gradient norm                   ....     0.128394818 Eh/bohr
Maximum allowed component of the step   ....  0.300
Current trust radius                    ....  0.300
Updating the Hessian (BFGS)             .... done
Forming the augmented Hessian           .... done
Diagonalizing the augmented Hessian     .... done
Last element of RFO vector              ....  0.991168657
Lowest eigenvalues of augmented Hessian:
 -0.002157432  0.107681950  0.249665497  0.276413471  0.277634530
Length of the computed step             ....  0.133788822
The final length of the internal step   ....  0.133788822
Converting the step to cartesian space:
 Initial RMS(Int)=    0.0403388476
Transforming coordinates:
 Iter   0:  RMS(Cart)=    0.0348862045 RMS(Int)=    0.0402930802
 Iter   1:  RMS(Cart)=    0.0010292100 RMS(Int)=    0.0013364154
 Iter   2:  RMS(Cart)=    0.0000554575 RMS(Int)=    0.0000611568
 Iter   3:  RMS(Cart)=    0.0000030709 RMS(Int)=    0.0000040341
 Iter   4:  RMS(Cart)=    0.0000001714 RMS(Int)=    0.0000001869
 Iter   5:  RMS(Cart)=    0.0000000091 RMS(Int)=    0.0000000122
Imposing constraints:
 Iter   0:  RMS(Cart)=    0.0000675231 RMS(Int)=    0.0001767150
 Iter   1:  RMS(Cart)=    0.0000300937 RMS(Int)=    0.0000787578
 Iter   2:  RMS(Cart)=    0.0000134121 RMS(Int)=    0.0000351004
 Iter   3:  RMS(Cart)=    0.0000059774 RMS(Int)=    0.0000156434
 Iter   4:  RMS(Cart)=    0.0000026640 RMS(Int)=    0.0000069719
 Iter   5:  RMS(Cart)=    0.0000011873 RMS(Int)=    0.0000031072
 Iter   6:  RMS(Cart)=    0.0000005291 RMS(Int)=    0.0000013848
 Iter   7:  RMS(Cart)=    0.0000002358 RMS(Int)=    0.0000006172
 Iter   8:  RMS(Cart)=    0.0000001051 RMS(Int)=    0.0000002751
 Iter   9:  RMS(Cart)=    0.0000000468 RMS(Int)=    0.0000001226
 Iter  10:  RMS(Cart)=    0.0000000209 RMS(Int)=    0.0000000546
CONVERGED
done
Storing new coordinates                 .... done

                                .--------------------.
          ----------------------|Geometry convergence|-------------------------
          Item                value                   Tolerance       Converged
          ---------------------------------------------------------------------
          Energy change      -0.0054953549            0.0000050000      NO
          RMS gradient        0.0054350188            0.0001000000      NO
          MAX gradient        0.0132393467            0.0003000000      NO
          RMS step            0.0403388476            0.0020000000      NO
          MAX step            0.1086371131            0.0040000000      NO
          ........................................................
          Max(Bonds)      0.0046      Max(Angles)    6.22
          Max(Dihed)        0.00      Max(Improp)    0.00
          ---------------------------------------------------------------------

The optimization has not yet converged - more geometry cycles are needed


    ---------------------------------------------------------------------------
                         Redundant Internal Coordinates
                            (Angstroem and degrees)

        Definition                    Value    dE/dq     Step     New-Value
    ----------------------------------------------------------------------------
     1. B(H   1,C   0)                1.1020 -0.004153  0.0020    1.1040   
     2. B(H   2,C   0)                1.1021 -0.004039  0.0018    1.1039   
     3. B(H   3,C   0)                1.1006 -0.000665  0.0040    1.1046   
     4. B(H   4,C   0)                1.1890  0.005039  0.0046    1.1936   
     5. A(H   2,C   0,H   3)          124.47  0.006955   -3.14    121.33   
     6. A(H   1,C   0,H   4)           90.89 -0.033736   -0.21     90.69   
     7. A(H   2,C   0,H   4)           90.87 -0.033789   -0.21     90.66   
     8. A(H   3,C   0,H   4)           88.44 -0.040212    0.19     88.63   
     9. A(H   1,C   0,H   2)          111.17 -0.013757    6.22    117.40   
    10. A(H   1,C   0,H   3)          124.36  0.006802   -3.09    121.27   
    11. D(H   3,H   2,H   1,C   0)     -0.00  0.064012   -0.00     -0.00 C 
    ----------------------------------------------------------------------------

         *************************************************************
         *                GEOMETRY OPTIMIZATION CYCLE   4            *
         *************************************************************
---------------------------------
CARTESIAN COORDINATES (ANGSTROEM)
---------------------------------
  C      4.530246    3.664252   -0.011145
  H      4.549187    2.560721    0.014932
  H      4.549345    4.195627    0.956305
  H      4.493617    4.214607   -0.968172
  H      3.336704    3.658793   -0.000920

----------------------------
CARTESIAN COORDINATES (A.U.)
----------------------------
  NO LB      ZA    FRAG     MASS         X           Y           Z
   0 C     4.0000    0    12.011    8.560925    6.924434   -0.021060
   1 H     1.0000    0     1.008    8.596718    4.839062    0.028217
   2 H     1.0000    0     1.008    8.597016    7.928585    1.807155
   3 H     1.0000    0     1.008    8.491705    7.964452   -1.829580
   4 H     1.0000    0     1.008    6.305457    6.914117   -0.001739

--------------------------------
INTERNAL COORDINATES (ANGSTROEM)
--------------------------------
 C      0   0   0     0.000000000000     0.00000000     0.00000000
 H      1   0   0     1.104001831101     0.00000000     0.00000000
 H      1   2   0     1.103939364347   117.39627022     0.00000000
 H      1   2   3     1.104596308903   121.26929818   180.00000553
 H      1   2   3     1.193598229492    90.70944149   268.85813278

---------------------------
INTERNAL COORDINATES (A.U.)
---------------------------
 C      0   0   0     0.000000000000     0.00000000     0.00000000
 H      1   0   0     2.086261112128     0.00000000     0.00000000
 H      1   2   0     2.086143067071   117.39627022     0.00000000
 H      1   2   3     2.087384512368   121.26929818   180.00000553
 H      1   2   3     2.255573767673    90.70944149   268.85813278

------------------------------------------------------------------------------
                           ORCA NDO INTEGRAL CALCULATION
------------------------------------------------------------------------------

--------------
NDO PARAMETERS
--------------

Gamma integral treatment              ... MOPAC
Nuclear repulsuion treatment          ... AM1-style
Interaction factors:
s-s (sigma) =    1.0000
s-p (sigma) =    1.0000
s-d (sigma) =    1.0000
p-p (sigma) =    1.0000  p-p(pi) =    1.0000
p-d (sigma) =    1.0000  p-d(pi) =    1.0000
d-d (sigma) =    1.0000  d-d(pi) =    1.0000 d-d (delta) =    1.0000

--------------------------
Parameters for Element H :
--------------------------
 One-electron parameters (in eV)
  U(s)  =   -11.396427 Beta(s) =     6.173787 Neff(s) =     1.000000
 One-center electron repulsion parameters (in eV)
  G(s,s)=    12.848000
--------------------------
Parameters for Element C :
--------------------------
 One-electron parameters (in eV)
  U(s)  =   -52.028658 Beta(s) =    15.715783 Neff(s) =     2.000000
  U(p)  =   -39.614239 Beta(p) =     7.719283 Neff(p) =     2.000000 
 One-center electron repulsion parameters (in eV)
  G(s,s)=    12.230000
  G(s,p)=    11.470000 G(p,p)  =    10.253300
 Slater-Condon parameters (in eV)
 F2(p,p)=     5.1667 G1(s,p)=    7.2900

 Number of atoms                    ....    5
 Number of basis functions          ....    8

 Overlap integrals                  .... done
 One electron matrix                .... done
 Nuclear repulsion                  .... done
 Integral list                      .... done
 Electron-electron repulsion        .... done

Diagonalization of the overlap matrix:
Smallest eigenvalue                        ... 2.908e-01
Time for diagonalization                   ...    0.000 sec
Threshold for overlap eigenvalues          ... 1.000e-08
Number of eigenvalues below threshold      ... 0
Time for construction of square roots      ...    0.000 sec
Total time needed                          ...    0.000 sec


 InCore treatment chosen:
   Memory dedicated               ...    2000 MB
   Memory needed                  ...      0 MB
   Number of tiny    integrals    ...       0
   Number of small   integrals    ...       0
   Number of regular integrals    ...      66

--------------
SCF ITERATIONS
--------------
ITER       Energy         Delta-E        Max-DP      RMS-DP      [F,P]     Damp
  0     -6.6926041312   0.000000000000 0.00174719  0.00048278  0.0068268 0.7000
                      *** Initiating the SOSCF procedure ***
                      *** Re-Reading the Fockian *** 
                      *** Removing any level shift *** 
ITER      Energy       Delta-E        Grad      Rot      Max-DP    RMS-DP
  1     -6.69263892  -0.0000347897  0.001755  0.001755  0.005893  0.001687
  2     -6.69276411  -0.0001251923  0.002015  0.002899  0.002872  0.000888
  3     -6.69278891  -0.0000248011  0.000822  0.002029  0.002292  0.000645
  4     -6.69279411  -0.0000051972  0.000085  0.000069  0.000219  0.000038
  5     -6.69279415  -0.0000000362  0.000028  0.000047  0.000125  0.000024
                 **** Energy Check signals convergence ****
              ***Rediagonalizing the Fockian in SOSCF/NRSCF***

               *****************************************************
               *                     SUCCESS                       *
               *           SCF CONVERGED AFTER   6 CYCLES          *
               *****************************************************

Total Energy       :           -6.69279415 Eh            -182.12019 eV
  Last Energy change         ...   -6.5317e-09  Tolerance :   1.0000e-08
  Last MAX-Density change    ...    4.4422e-06  Tolerance :   1.0000e-07
             **** THE GBW FILE WAS UPDATED (calc.gbw) ****
             **** DENSITY calc.scfp WAS UPDATED ****
             **** ENERGY FILE WAS UPDATED (calc.en.tmp) ****
             **** THE GBW FILE WAS UPDATED (calc.gbw) ****
             **** DENSITY calc.scfp WAS UPDATED ****
Total SCF time: 0 days 0 hours 0 min 0 sec 

Maximum memory used throughout the entire SCF-calculation: 222.8 MB

-------------------------   --------------------
FINAL SINGLE POINT ENERGY        -6.692794154314
-------------------------   --------------------

------------------------------------------------------------------------------
                          SCF GRADIENT FOR NDO METHODS
------------------------------------------------------------------------------

The cartesian gradient:
   1   C   :    0.112489560    0.002616521   -0.004452811
   2   H   :   -0.033925695    0.000445026    0.003464226
   3   H   :   -0.033969648   -0.003255525    0.001358683
   4   H   :   -0.037166481   -0.000640628    0.001047090
   5   H   :   -0.007427735    0.000834606   -0.001417188

Norm of the cartesian gradient     ...    0.128260821
RMS gradient                       ...    0.033116802
MAX gradient                       ...    0.112489560
------------------------------------------------------------------------------
                         ORCA GEOMETRY RELAXATION STEP
------------------------------------------------------------------------------

Reading the OPT-File                    .... done
Getting information on internals        .... done
Copying old internal coords+grads       .... done
Making the new internal coordinates     .... (new redundants).... done
Validating the new internal coordinates .... (new redundants).... done
Calculating the B-matrix                .... done
Calculating the G,G- and P matrices     .... done
Transforming gradient to internals      .... done
Projecting the internal gradient        .... done
Number of atoms                         ....   5
Number of internal coordinates          ....  11
Current Energy                          ....    -6.692794154 Eh
Current gradient norm                   ....     0.128260821 Eh/bohr
Maximum allowed component of the step   ....  0.300
Current trust radius                    ....  0.300
Updating the Hessian (BFGS)             .... done
Forming the augmented Hessian           .... done
Diagonalizing the augmented Hessian     .... done
Last element of RFO vector              ....  0.998525898
Lowest eigenvalues of augmented Hessian:
 -0.000383843  0.085267677  0.249671465  0.276413954  0.277630738
Length of the computed step             ....  0.054357489
The final length of the internal step   ....  0.054357489
Converting the step to cartesian space:
 Initial RMS(Int)=    0.0163893997
Transforming coordinates:
 Iter   0:  RMS(Cart)=    0.0150715822 RMS(Int)=    0.0163723188
 Iter   1:  RMS(Cart)=    0.0001555143 RMS(Int)=    0.0001926885
 Iter   2:  RMS(Cart)=    0.0000028589 RMS(Int)=    0.0000033077
 Iter   3:  RMS(Cart)=    0.0000000670 RMS(Int)=    0.0000000835
Imposing constraints:
 Iter   0:  RMS(Cart)=    0.0001556235 RMS(Int)=    0.0003931909
 Iter   1:  RMS(Cart)=    0.0000666432 RMS(Int)=    0.0001683754
 Iter   2:  RMS(Cart)=    0.0000285385 RMS(Int)=    0.0000721026
 Iter   3:  RMS(Cart)=    0.0000122209 RMS(Int)=    0.0000308761
 Iter   4:  RMS(Cart)=    0.0000052333 RMS(Int)=    0.0000132219
 Iter   5:  RMS(Cart)=    0.0000022410 RMS(Int)=    0.0000056619
 Iter   6:  RMS(Cart)=    0.0000009597 RMS(Int)=    0.0000024246
 Iter   7:  RMS(Cart)=    0.0000004109 RMS(Int)=    0.0000010383
 Iter   8:  RMS(Cart)=    0.0000001760 RMS(Int)=    0.0000004446
 Iter   9:  RMS(Cart)=    0.0000000754 RMS(Int)=    0.0000001904
 Iter  10:  RMS(Cart)=    0.0000000323 RMS(Int)=    0.0000000815
CONVERGED
done
Storing new coordinates                 .... done

                                .--------------------.
          ----------------------|Geometry convergence|-------------------------
          Item                value                   Tolerance       Converged
          ---------------------------------------------------------------------
          Energy change      -0.0013341266            0.0000050000      NO
          RMS gradient        0.0027772606            0.0001000000      NO
          MAX gradient        0.0074114274            0.0003000000      NO
          RMS step            0.0163893997            0.0020000000      NO
          MAX step            0.0403426520            0.0040000000      NO
          ........................................................
          Max(Bonds)      0.0091      Max(Angles)    2.31
          Max(Dihed)        0.00      Max(Improp)    0.00
          ---------------------------------------------------------------------

The optimization has not yet converged - more geometry cycles are needed


    ---------------------------------------------------------------------------
                         Redundant Internal Coordinates
                            (Angstroem and degrees)

        Definition                    Value    dE/dq     Step     New-Value
    ----------------------------------------------------------------------------
     1. B(H   1,C   0)                1.1040 -0.000945 -0.0001    1.1039   
     2. B(H   2,C   0)                1.1039 -0.000964 -0.0001    1.1039   
     3. B(H   3,C   0)                1.1046  0.000006  0.0012    1.1058   
     4. B(H   4,C   0)                1.1936  0.007411 -0.0091    1.1845   
     5. A(H   2,C   0,H   3)          121.33  0.002006   -1.17    120.16   
     6. A(H   1,C   0,H   4)           90.71 -0.030981   -0.42     90.29   
     7. A(H   2,C   0,H   4)           90.69 -0.031041   -0.41     90.28   
     8. A(H   3,C   0,H   4)           88.66 -0.036089    0.60     89.25   
     9. A(H   1,C   0,H   2)          117.40 -0.003930    2.31    119.71   
    10. A(H   1,C   0,H   3)          121.27  0.001923   -1.14    120.13   
    11. D(H   3,H   2,H   1,C   0)      0.00  0.063100    0.00      0.00 C 
    ----------------------------------------------------------------------------

         *************************************************************
         *                GEOMETRY OPTIMIZATION CYCLE   5            *
         *************************************************************
---------------------------------
CARTESIAN COORDINATES (ANGSTROEM)
---------------------------------
  C      4.528682    3.660710   -0.005118
  H      4.542772    2.556956   -0.001111
  H      4.543064    4.211491    0.951434
  H      4.500286    4.211949   -0.963316
  H      3.344296    3.652893    0.009111

----------------------------
CARTESIAN COORDINATES (A.U.)
----------------------------
  NO LB      ZA    FRAG     MASS         X           Y           Z
   0 C     4.0000    0    12.011    8.557970    6.917740   -0.009671
   1 H     1.0000    0     1.008    8.584595    4.831947   -0.002100
   2 H     1.0000    0     1.008    8.585147    7.958565    1.797950
   3 H     1.0000    0     1.008    8.504307    7.959430   -1.820404
   4 H     1.0000    0     1.008    6.319803    6.902968    0.017218

--------------------------------
INTERNAL COORDINATES (ANGSTROEM)
--------------------------------
 C      0   0   0     0.000000000000     0.00000000     0.00000000
 H      1   0   0     1.103851536662     0.00000000     0.00000000
 H      1   2   0     1.103883024028   119.70886478     0.00000000
 H      1   2   3     1.105809549525   120.12725725   180.00000814
 H      1   2   3     1.184497931107    90.35065170   269.40999367

---------------------------
INTERNAL COORDINATES (A.U.)
---------------------------
 C      0   0   0     0.000000000000     0.00000000     0.00000000
 H      1   0   0     2.085977096798     0.00000000     0.00000000
 H      1   2   0     2.086036599298   119.70886478     0.00000000
 H      1   2   3     2.089677204876   120.12725725   180.00000814
 H      1   2   3     2.238376695989    90.35065170   269.40999367

------------------------------------------------------------------------------
                           ORCA NDO INTEGRAL CALCULATION
------------------------------------------------------------------------------

--------------
NDO PARAMETERS
--------------

Gamma integral treatment              ... MOPAC
Nuclear repulsuion treatment          ... AM1-style
Interaction factors:
s-s (sigma) =    1.0000
s-p (sigma) =    1.0000
s-d (sigma) =    1.0000
p-p (sigma) =    1.0000  p-p(pi) =    1.0000
p-d (sigma) =    1.0000  p-d(pi) =    1.0000
d-d (sigma) =    1.0000  d-d(pi) =    1.0000 d-d (delta) =    1.0000

--------------------------
Parameters for Element H :
--------------------------
 One-electron parameters (in eV)
  U(s)  =   -11.396427 Beta(s) =     6.173787 Neff(s) =     1.000000
 One-center electron repulsion parameters (in eV)
  G(s,s)=    12.848000
--------------------------
Parameters for Element C :
--------------------------
 One-electron parameters (in eV)
  U(s)  =   -52.028658 Beta(s) =    15.715783 Neff(s) =     2.000000
  U(p)  =   -39.614239 Beta(p) =     7.719283 Neff(p) =     2.000000 
 One-center electron repulsion parameters (in eV)
  G(s,s)=    12.230000
  G(s,p)=    11.470000 G(p,p)  =    10.253300
 Slater-Condon parameters (in eV)
 F2(p,p)=     5.1667 G1(s,p)=    7.2900

 Number of atoms                    ....    5
 Number of basis functions          ....    8

 Overlap integrals                  .... done
 One electron matrix                .... done
 Nuclear repulsion                  .... done
 Integral list                      .... done
 Electron-electron repulsion        .... done

Diagonalization of the overlap matrix:
Smallest eigenvalue                        ... 2.896e-01
Time for diagonalization                   ...    0.000 sec
Threshold for overlap eigenvalues          ... 1.000e-08
Number of eigenvalues below threshold      ... 0
Time for construction of square roots      ...    0.000 sec
Total time needed                          ...    0.000 sec


 InCore treatment chosen:
   Memory dedicated               ...    2000 MB
   Memory needed                  ...      0 MB
   Number of tiny    integrals    ...       0
   Number of small   integrals    ...       0
   Number of regular integrals    ...      66

--------------
SCF ITERATIONS
--------------
ITER       Energy         Delta-E        Max-DP      RMS-DP      [F,P]     Damp
                      *** Initiating the SOSCF procedure ***
                      *** Re-Reading the Fockian *** 
                      *** Removing any level shift *** 
ITER      Energy       Delta-E        Grad      Rot      Max-DP    RMS-DP
  0     -6.69300243  -6.6930024265  0.001534  0.001534  0.002277  0.000650
  1     -6.69302482  -0.0000223920  0.000827  0.001219  0.001420  0.000485
  2     -6.69303233  -0.0000075121  0.000343  0.000913  0.001166  0.000350
  3     -6.69303387  -0.0000015379  0.000052  0.000049  0.000139  0.000027
  4     -6.69303389  -0.0000000177  0.000018  0.000023  0.000072  0.000015
                 **** Energy Check signals convergence ****
              ***Rediagonalizing the Fockian in SOSCF/NRSCF***

               *****************************************************
               *                     SUCCESS                       *
               *           SCF CONVERGED AFTER   5 CYCLES          *
               *****************************************************

Total Energy       :           -6.69303389 Eh            -182.12671 eV
  Last Energy change         ...   -2.8297e-09  Tolerance :   1.0000e-08
  Last MAX-Density change    ...    5.6975e-06  Tolerance :   1.0000e-07
             **** THE GBW FILE WAS UPDATED (calc.gbw) ****
             **** DENSITY calc.scfp WAS UPDATED ****
             **** ENERGY FILE WAS UPDATED (calc.en.tmp) ****
             **** THE GBW FILE WAS UPDATED (calc.gbw) ****
             **** DENSITY calc.scfp WAS UPDATED ****
Total SCF time: 0 days 0 hours 0 min 0 sec 

Maximum memory used throughout the entire SCF-calculation: 222.8 MB

-------------------------   --------------------
FINAL SINGLE POINT ENERGY        -6.693033889033
[...]
CONVERGED
done
Storing new coordinates                 .... done

                                .--------------------.
          ----------------------|Geometry convergence|-------------------------
          Item                value                   Tolerance       Converged
          ---------------------------------------------------------------------
          Energy change      -0.0000027892            0.0000050000      YES
          RMS gradient        0.0001112305            0.0001000000      NO
          MAX gradient        0.0003006422            0.0003000000      NO
          RMS step            0.0006165785            0.0020000000      YES
          MAX step            0.0011838862            0.0040000000      YES
          ........................................................
          Max(Bonds)      0.0006      Max(Angles)    0.06
          Max(Dihed)        0.00      Max(Improp)    0.00
          ---------------------------------------------------------------------

       The step convergence is overachieved with 
       reasonable convergence on the gradient
       Convergence will therefore be signaled now


                    ***********************HURRAY********************
                    ***        THE OPTIMIZATION HAS CONVERGED     ***
                    *************************************************


    ---------------------------------------------------------------------------
                         Redundant Internal Coordinates

                          --- Optimized Parameters ---  
                            (Angstroem and degrees)

        Definition                    OldVal   dE/dq     Step     FinalVal
    ----------------------------------------------------------------------------
     1. B(H   1,C   0)                1.1024 -0.000525  0.0001    1.1025   
     2. B(H   2,C   0)                1.1024 -0.000525  0.0001    1.1025   
     3. B(H   3,C   0)                1.1175  0.001056 -0.0001    1.1174   
     4. B(H   4,C   0)                1.1997  0.000301 -0.0006    1.1991   
     5. A(H   2,C   0,H   3)          114.36 -0.010379   -0.03    114.33   
     6. A(H   1,C   0,H   4)           85.18 -0.031104   -0.02     85.16   
     7. A(H   2,C   0,H   4)           85.18 -0.031105   -0.02     85.16   
     8. A(H   3,C   0,H   4)           87.22 -0.026264    0.06     87.27   
     9. A(H   1,C   0,H   2)          129.64 -0.002228    0.06    129.70   
    10. A(H   1,C   0,H   3)          114.36 -0.010379   -0.03    114.33   
    11. D(H   3,H   2,H   1,C   0)     10.00  0.070689   -0.00     10.00 C 
    ----------------------------------------------------------------------------
                 *******************************************************
                 *** FINAL ENERGY EVALUATION AT THE STATIONARY POINT ***
                 ***               (AFTER    4 CYCLES)               ***
                 *******************************************************
---------------------------------
CARTESIAN COORDINATES (ANGSTROEM)
---------------------------------
  C      4.580214    3.641982    0.027315
  H      4.496464    2.547096   -0.070954
  H      4.496895    4.276938    0.924701
  H      4.504118    4.198079   -0.938890
  H      3.381410    3.629906    0.048828

----------------------------
CARTESIAN COORDINATES (A.U.)
----------------------------
  NO LB      ZA    FRAG     MASS         X           Y           Z
   0 C     4.0000    0    12.011    8.655349    6.882348    0.051618
   1 H     1.0000    0     1.008    8.497086    4.813315   -0.134084
   2 H     1.0000    0     1.008    8.497899    8.082241    1.747431
   3 H     1.0000    0     1.008    8.511549    7.933219   -1.774245
   4 H     1.0000    0     1.008    6.389938    6.859527    0.092272

--------------------------------
INTERNAL COORDINATES (ANGSTROEM)
--------------------------------
 C      0   0   0     0.000000000000     0.00000000     0.00000000
 H      1   0   0     1.102472172269     0.00000000     0.00000000
 H      1   2   0     1.102457051174   129.70214654     0.00000000
 H      1   2   3     1.117401962336   114.33033619   195.59051271
 H      1   2   3     1.199057876483    85.16123361   280.38899302

---------------------------
INTERNAL COORDINATES (A.U.)
---------------------------
 C      0   0   0     0.000000000000     0.00000000     0.00000000
 H      1   0   0     2.083370475858     0.00000000     0.00000000
 H      1   2   0     2.083341901130   129.70214654     0.00000000
 H      1   2   3     2.111583690322   114.33033619   195.59051271
 H      1   2   3     2.265891005274    85.16123361   280.38899302

----------------------------
SLATER BASIS SET DIM=   8
----------------------------
  0 C     2 shells
 l=0 nsto= 1
    2       1.808665000000        1.000000000000
 l=1 nsto= 1
    2       1.685116000000        1.000000000000
  1 H     1 shells
 l=0 nsto= 1
    1       1.188078000000        1.000000000000
  2 H     1 shells
 l=0 nsto= 1
    1       1.188078000000        1.000000000000
  3 H     1 shells
 l=0 nsto= 1
    1       1.188078000000        1.000000000000
  4 H     1 shells
 l=0 nsto= 1
    1       1.188078000000        1.000000000000
------------------------------------------------------------------------------
                           ORCA NDO INTEGRAL CALCULATION
------------------------------------------------------------------------------

--------------
NDO PARAMETERS
--------------

Gamma integral treatment              ... MOPAC
Nuclear repulsuion treatment          ... AM1-style
Interaction factors:
s-s (sigma) =    1.0000
s-p (sigma) =    1.0000
s-d (sigma) =    1.0000
p-p (sigma) =    1.0000  p-p(pi) =    1.0000
p-d (sigma) =    1.0000  p-d(pi) =    1.0000
d-d (sigma) =    1.0000  d-d(pi) =    1.0000 d-d (delta) =    1.0000

--------------------------
Parameters for Element H :
--------------------------
 One-electron parameters (in eV)
  U(s)  =   -11.396427 Beta(s) =     6.173787 Neff(s) =     1.000000
 One-center electron repulsion parameters (in eV)
  G(s,s)=    12.848000
--------------------------
Parameters for Element C :
--------------------------
 One-electron parameters (in eV)
  U(s)  =   -52.028658 Beta(s) =    15.715783 Neff(s) =     2.000000
  U(p)  =   -39.614239 Beta(p) =     7.719283 Neff(p) =     2.000000 
 One-center electron repulsion parameters (in eV)
  G(s,s)=    12.230000
  G(s,p)=    11.470000 G(p,p)  =    10.253300
 Slater-Condon parameters (in eV)
 F2(p,p)=     5.1667 G1(s,p)=    7.2900

 Number of atoms                    ....    5
 Number of basis functions          ....    8

 Overlap integrals                  .... done
 One electron matrix                .... done
 Nuclear repulsion                  .... done
 Integral list                      .... done
 Electron-electron repulsion        .... done
-------------------------------------------------------------------------------
                                 ORCA SCF
-------------------------------------------------------------------------------

------------
SCF SETTINGS
------------
Hamiltonian:
 ZDO-Hamiltonian        Method          .... NDDO


General Settings:
 Integral files         IntName         .... calc
 Hartree-Fock type      HFTyp           .... RHF
 Total Charge           Charge          ....    0
 Multiplicity           Mult            ....    1
 Number of Electrons    NEL             ....    8
 Basis Dimension        Dim             ....    8
 Nuclear Repulsion      ENuc            ....      7.3578450016 Eh

Convergence Acceleration:
 DIIS                   CNVDIIS         .... on
   Start iteration      DIISMaxIt       ....    12
   Startup error        DIISStart       ....  0.200000
   # of expansion vecs  DIISMaxEq       ....     5
   Bias factor          DIISBfac        ....   1.050
   Max. coefficient     DIISMaxC        ....  10.000
 Trust-Rad. Augm. Hess. CNVTRAH         .... off
 SOSCF                  CNVSOSCF        .... on
   Start iteration      SOSCFMaxIt      ....   150
   Startup grad/error   SOSCFStart      ....  0.003300
 Level Shifting         CNVShift        .... on
   Level shift para.    LevelShift      ....    0.2500
   Turn off err/grad.   ShiftErr        ....    0.0010
 Zerner damping         CNVZerner       .... off
 Static damping         CNVDamp         .... on
   Fraction old density DampFac         ....    0.7000
   Max. Damping (<1)    DampMax         ....    0.9800
   Min. Damping (>=0)   DampMin         ....    0.0000
   Turn off err/grad.   DampErr         ....    0.1000
 Fernandez-Rico         CNVRico         .... off

SCF Procedure:
 Maximum # iterations   MaxIter         ....   125
 SCF integral mode      SCFMode         .... Conventional
 Integral Buffer length BufferLength    .... 1048576
 Integral index format  IndFormat       ....     0
 Integral value format  ValFormat       ....     0
 Integral Storage       Thresh          ....  2.500e-11 Eh

Convergence Tolerance:
 Convergence Check Mode ConvCheckMode   .... Total+1el-Energy
 Convergence forced     ConvForced      .... 0
 Energy Change          TolE            ....  1.000e-08 Eh
 1-El. energy change                    ....  1.000e-05 Eh
 Orbital Gradient       TolG            ....  1.000e-05
 Orbital Rotation angle TolX            ....  1.000e-05
 DIIS Error             TolErr          ....  5.000e-07


Diagonalization of the overlap matrix:
Smallest eigenvalue                        ... 2.923e-01
Time for diagonalization                   ...    0.000 sec
Threshold for overlap eigenvalues          ... 1.000e-08
Number of eigenvalues below threshold      ... 0
Time for construction of square roots      ...    0.000 sec
Total time needed                          ...    0.000 sec

---------------------
INITIAL GUESS: MOREAD
---------------------
Guess MOs are being read from file: calc.gbw
Input Geometry matches current geometry (good)
Input basis set matches current basis set (good)
                      ------------------
                      INITIAL GUESS DONE (   0.0 sec)
                      ------------------

 InCore treatment chosen:
   Memory dedicated               ...    2000 MB
   Memory needed                  ...      0 MB
   Number of tiny    integrals    ...       0
   Number of small   integrals    ...       0
   Number of regular integrals    ...      66

--------------
SCF ITERATIONS
--------------
ITER       Energy         Delta-E        Max-DP      RMS-DP      [F,P]     Damp
                      *** Initiating the SOSCF procedure ***
                      *** Re-Reading the Fockian *** 
                      *** Removing any level shift *** 
ITER      Energy       Delta-E        Grad      Rot      Max-DP    RMS-DP
  0     -6.67336100  -6.6733610003  0.000090  0.000090  0.000126  0.000030
  1     -6.67336105  -0.0000000494  0.000037  0.000063  0.000082  0.000023
  2     -6.67336107  -0.0000000174  0.000018  0.000053  0.000062  0.000019
                 **** Energy Check signals convergence ****
              ***Rediagonalizing the Fockian in SOSCF/NRSCF***

               *****************************************************
               *                     SUCCESS                       *
               *           SCF CONVERGED AFTER   3 CYCLES          *
               *****************************************************


----------------
TOTAL SCF ENERGY
----------------

Total Energy       :           -6.67336107 Eh            -181.59139 eV

Components:
Nuclear Repulsion  :            7.35784500 Eh             200.21714 eV
Electronic Energy  :          -14.03120607 Eh            -381.80853 eV
One Electron Energy:          -23.08608971 Eh            -628.20444 eV
Two Electron Energy:            9.05488364 Eh             246.39591 eV


---------------
SCF CONVERGENCE
---------------

  Last Energy change         ...   -4.3416e-09  Tolerance :   1.0000e-08
  Last MAX-Density change    ...    7.1868e-06  Tolerance :   1.0000e-07
  Last RMS-Density change    ...    1.6167e-06  Tolerance :   5.0000e-09
  Last Orbital Gradient      ...    3.5049e-06  Tolerance :   1.0000e-05
  Last Orbital Rotation      ...    4.3969e-06  Tolerance :   1.0000e-05

             **** THE GBW FILE WAS UPDATED (calc.gbw) ****
             **** DENSITY calc.scfp WAS UPDATED ****
             **** ENERGY FILE WAS UPDATED (calc.en.tmp) ****
             **** THE GBW FILE WAS UPDATED (calc.gbw) ****
             **** DENSITY calc.scfp WAS UPDATED ****
----------------
ORBITAL ENERGIES
----------------

  NO   OCC          E(Eh)            E(eV) 
   0   2.0000      -1.062710       -28.9178 
   1   2.0000      -0.516429       -14.0527 
   2   2.0000      -0.490765       -13.3544 
   3   2.0000      -0.418259       -11.3814 
   4   0.0000       0.107107         2.9145 
   5   0.0000       0.170477         4.6389 
   6   0.0000       0.185260         5.0412 
   7   0.0000       0.187400         5.0994 

                    ********************************
                    * MULLIKEN POPULATION ANALYSIS *
                    ********************************

-----------------------
MULLIKEN ATOMIC CHARGES
-----------------------
   0 C :   -0.443533
   1 H :    0.160283
   2 H :    0.160292
   3 H :    0.126229
   4 H :   -0.003270
Sum of atomic charges:    0.0000000

--------------------------------
MULLIKEN REDUCED ORBITAL CHARGES
--------------------------------
  0 C s       :     1.515790  s :     1.515790
      pz      :     0.962428  p :     2.927743
      px      :     1.010371
      py      :     0.954944
  1 H s       :     0.839717  s :     0.839717
  2 H s       :     0.839708  s :     0.839708
  3 H s       :     0.873771  s :     0.873771
  4 H s       :     1.003270  s :     1.003270


                     *******************************
                     * LOEWDIN POPULATION ANALYSIS *
                     *******************************

----------------------
LOEWDIN ATOMIC CHARGES
----------------------
   0 C :   -0.296268
   1 H :    0.112833
   2 H :    0.112840
   3 H :    0.083597
   4 H :   -0.013002

-------------------------------
LOEWDIN REDUCED ORBITAL CHARGES
-------------------------------
  0 C s       :     1.261357  s :     1.261357
      pz      :     1.000997  p :     3.034910
      px      :     1.040264
      py      :     0.993650
  1 H s       :     0.887167  s :     0.887167
  2 H s       :     0.887160  s :     0.887160
  3 H s       :     0.916403  s :     0.916403
  4 H s       :     1.013002  s :     1.013002


                      *****************************
                      * MAYER POPULATION ANALYSIS *
                      *****************************

  NA   - Mulliken gross atomic population
  ZA   - Total nuclear charge
  QA   - Mulliken gross atomic charge
  VA   - Mayer's total valence
  BVA  - Mayer's bonded valence
  FA   - Mayer's free valence

  ATOM       NA         ZA         QA         VA         BVA        FA
  0 C      6.7149     4.0000    -2.7149     1.8653    10.6262    -8.7609
  1 H      1.4954     1.0000    -0.4954     0.7546     2.8667    -2.1121
  2 H      1.4954     1.0000    -0.4954     0.7546     2.8667    -2.1122
  3 H      1.5156     1.0000    -0.5156     0.7342     2.8527    -2.1185
  4 H      1.5742     1.0000    -0.5742     0.6703     3.1573    -2.4870

  Mayer bond orders larger than 0.100000
B(  0-C ,  1-H ) :   2.6671 B(  0-C ,  2-H ) :   2.6671 B(  0-C ,  3-H ) :   2.6637 
B(  0-C ,  4-H ) :   2.6283 B(  1-H ,  4-H ) :   0.1845 B(  2-H ,  4-H ) :   0.1845 
B(  3-H ,  4-H ) :   0.1599 

-------
TIMINGS
-------

Total SCF time: 0 days 0 hours 0 min 0 sec 

Total time                  ....       0.098 sec
Sum of individual times     ....       0.007 sec  (  7.1%)

Fock matrix formation       ....       0.003 sec  (  2.6%)
Diagonalization             ....       0.000 sec  (  0.0%)
Density matrix formation    ....       0.000 sec  (  0.0%)
Population analysis         ....       0.004 sec  (  4.0%)
Initial guess               ....       0.000 sec  (  0.3%)
Orbital Transformation      ....       0.000 sec  (  0.0%)
Orbital Orthonormalization  ....       0.000 sec  (  0.0%)
DIIS solution               ....       0.000 sec  (  0.0%)
SOSCF solution              ....       0.000 sec  (  0.1%)

Maximum memory used throughout the entire SCF-calculation: 222.8 MB

-------------------------   --------------------
FINAL SINGLE POINT ENERGY        -6.673361071464
-------------------------   --------------------

                                *** OPTIMIZATION RUN DONE ***

Storing optimized geometry in calc.010.xyz ... done
Storing optimized geometry and energy in calc.xyzall ... done
Storing actual gbw-file in calc.010.gbw ... done

                            ***************************************
                            *     ORCA property calculations      *
                            ***************************************

                                    ---------------------
                                    Active property flags
                                    ---------------------
   (+) Dipole Moment


------------------------------------------------------------------------------
                       ORCA ELECTRIC PROPERTIES CALCULATION
------------------------------------------------------------------------------

Dipole Moment Calculation                       ... on
Quadrupole Moment Calculation                   ... off
Polarizability Calculation                      ... off
GBWName                                         ... calc.gbw
Electron density                                ... calc.scfp
The origin for moment calculation is the CENTER OF MASS  = ( 8.484139,  6.892333  0.034334)

-------------
DIPOLE MOMENT
-------------
                                X             Y             Z
Electronic contribution:      2.17824      -0.13478       0.23334
Nuclear contribution   :     -1.35524       0.07903      -0.13682
                        -----------------------------------------
Total Dipole Moment    :      0.82300      -0.05575       0.09652
                        -----------------------------------------
Magnitude (a.u.)       :      0.83051
Magnitude (Debye)      :      2.11099



--------------------
Rotational spectrum 
--------------------
 
Rotational constants in cm-1:     5.587796     5.046272     4.566236 
Rotational constants in MHz : 167517.919570 151283.418093 136892.314853 

 Dipole components along the rotational axes: 
x,y,z [a.u.] :     0.000009     0.022939    -0.830196 
x,y,z [Debye]:     0.000023     0.058307    -2.110190 

 
                   **** RELAXED SURFACE SCAN DONE ***

                    SUMMARY OF THE CALCULATED SURFACE

----------------------------
RELAXED SURFACE SCAN RESULTS
----------------------------

Column   1: NONAME

The Calculated Surface using the 'Actual Energy'
   0.00000000  -6.69307121
   1.11111111  -6.69089575
   2.22222222  -6.68870625
   3.33333333  -6.68650709
   4.44444444  -6.68430266
   5.55555556  -6.68209744
   6.66666667  -6.67989599
   7.77777778  -6.67770293
   8.88888889  -6.67552300
  10.00000000  -6.67336107

The Calculated Surface using the SCF energy
   0.00000000  -6.69307121
   1.11111111  -6.69089575
   2.22222222  -6.68870625
   3.33333333  -6.68650709
   4.44444444  -6.68430266
   5.55555556  -6.68209744
   6.66666667  -6.67989599
   7.77777778  -6.67770293
   8.88888889  -6.67552300
  10.00000000  -6.67336107


Timings for individual modules:

Sum of individual times         ...        8.850 sec (=   0.148 min)
STO integral calculation        ...        0.849 sec (=   0.014 min)   9.6 %
SCF iterations                  ...        6.807 sec (=   0.113 min)  76.9 %
SCF Gradient evaluation         ...        0.511 sec (=   0.009 min)   5.8 %
Geometry relaxation             ...        0.684 sec (=   0.011 min)   7.7 %
                             ****ORCA TERMINATED NORMALLY****
TOTAL RUN TIME: 0 days 0 hours 0 minutes 10 seconds 542 msec
